<?xml version="1.0" encoding="UTF-8"?>
<module cmlx:templateRef="gaussian.log" xmlns="http://www.xml-cml.org/schema" xmlns:cmlx="http://www.xml-cml.org/schema/cmlx"><scalar dataType="xsd:string" dictRef="cc:title">c343</scalar><scalar dataType="xsd:string" dictRef="g:archive">@</scalar><formula formalCharge="0" concise="C 16 H 15 N 1 O 4"><atomArray elementType="C H N O" count="16.0 15.0 1.0 4.0"/></formula><module cmlx:lineCount="16549" cmlx:templateRef="job"><module cmlx:lineCount="3" cmlx:templateRef="entering"><scalar dataType="xsd:string" dictRef="g:link0">g09</scalar><array dataType="xsd:string" size="3" dictRef="g:command">/usr/local/gaussian/g09/l1.exe /globalscratch/jcole/Gau-10657.inp -scrdir=/globalscratch/jcole/</array></module> Entering Link 1 = /usr/local/gaussian/g09/l1.exe PID=     10660.
  
<module cmlx:lineCount="48" cmlx:templateRef="l1.legal"><scalar dataType="xsd:string" dictRef="g:l1.legal">Copyright (c) 1988,1990,1992,1993,1995,1998,2003,2009, Gaussian, Inc.</scalar></module>  

<module cmlx:lineCount="18" cmlx:templateRef="l1.citation"><list cmlx:templateRef="citation"><scalar dataType="xsd:string" dictRef="g:l1.citation">Cite this work as:</scalar></list></module> 
<module cmlx:lineCount="31" cmlx:templateRef="l1.end"><scalar dataType="xsd:string" dictRef="cc:run.date">10-Jan-2012</scalar><scalar dataType="xsd:string" dictRef="cc:program">Gaussian 09</scalar><scalar dataType="xsd:string" dictRef="cc:version">AM64L-G09RevA.02</scalar><scalar dataType="xsd:string" dictRef="cc:program.date">11-Jun-2009</scalar><array dataType="xsd:string" size="1" dictRef="g:kk">nprocshared=4</array><array dataType="xsd:string" size="1" dictRef="g:kk">mem=4GB</array><array dataType="xsd:string" size="1" dictRef="g:kk">chk=opt_c343.chk</array> Default route:  MaxDisk=200GB
<scalar dataType="xsd:string" dictRef="cc:title" cmlx:templateRef="title">#p b3lyp/6-31+g(d,p) opt pop=full</scalar><list cmlx:templateRef="control"><scalar dataType="xsd:string" dictRef="g:control">1/14=-1,18=20,19=15,26=3,38=1/1,3</scalar><scalar dataType="xsd:string" dictRef="g:control">2/9=110,12=2,17=6,18=5,40=1/2</scalar><scalar dataType="xsd:string" dictRef="g:control">3/5=1,6=6,7=111,11=2,16=1,25=1,30=1,71=1,74=-5/1,2,3</scalar><scalar dataType="xsd:string" dictRef="g:control">4//1</scalar><scalar dataType="xsd:string" dictRef="g:control">5/5=2,38=5/2</scalar><scalar dataType="xsd:string" dictRef="g:control">6/7=3,28=1/1</scalar><scalar dataType="xsd:string" dictRef="g:control">7//1,2,3,16</scalar><scalar dataType="xsd:string" dictRef="g:control">1/14=-1,18=20,19=15/3(2)</scalar><scalar dataType="xsd:string" dictRef="g:control">2/9=110/2</scalar><scalar dataType="xsd:string" dictRef="g:control">99//99</scalar></list><list cmlx:templateRef="control"><scalar dataType="xsd:string" dictRef="g:control">2/9=110/2</scalar><scalar dataType="xsd:string" dictRef="g:control">3/5=1,6=6,7=111,11=2,16=1,25=1,30=1,71=1,74=-5/1,2,3</scalar><scalar dataType="xsd:string" dictRef="g:control">4/5=5,16=3/1</scalar><scalar dataType="xsd:string" dictRef="g:control">5/5=2,38=5/2</scalar><scalar dataType="xsd:string" dictRef="g:control">7//1,2,3,16</scalar><scalar dataType="xsd:string" dictRef="g:control">1/14=-1,18=20,19=15/3(-5)</scalar><scalar dataType="xsd:string" dictRef="g:control">2/9=110/2</scalar><scalar dataType="xsd:string" dictRef="g:control">6/7=3,19=2,28=1/1</scalar><scalar dataType="xsd:string" dictRef="g:control">99/9=1/99</scalar></list></module><module cmlx:lineCount="3" cmlx:templateRef="l101.title"><scalar dataType="xsd:string" dictRef="cc:title" cmlx:templateRef="title">c343</scalar></module><module cmlx:lineCount="39" cmlx:templateRef="l101"><module cmlx:lineCount="38" cmlx:templateRef="l101.zmatvariables"> C                    -3.7647    1.3478   -0.1476 
 O                    -3.3144    0.5183    0.8212 
 C                    -3.0503    2.6295   -0.1737 
 C                    -1.7584    2.6035   -0.5331 
 C                    -1.0144    3.8478   -0.6405 
 C                    -1.6636    5.0544   -0.4032 
 O                    -3.0314    5.0566   -0.0449 
 C                    -3.7625    3.8834    0.1177 
 O                    -4.9131    3.9035    0.5367 
 C                    -1.0012    6.2888   -0.4948 
 C                     0.3563    6.3187   -0.8735 
 C                     1.0116    5.0922   -1.1255 
 C                     0.3315    3.8689   -0.9945 
 C                     2.4686    5.0773   -1.5174 
 C                     2.8706    6.3895   -2.1734 
 C                     2.4665    7.5506   -1.2795 
 N                     1.0361    7.5229   -0.9974 
 C                     0.313     8.7866   -0.9214 
 C                    -0.7931    8.7093    0.117 
 C                    -1.7455    7.5742   -0.2318 
 H                    -2.6991    0.9293    1.4578 
 H                    -1.2524    1.676    -0.7868 
 H                     0.8638    2.9402   -1.1889 
 H                     3.0712    4.902    -0.618 
 H                     2.665     4.2569   -2.2178 
 H                     3.9515    6.4053   -2.351 
 H                     2.378     6.4852   -3.1498 
 H                     2.7403    8.4892   -1.7758 
 H                     3.0195    7.5143   -0.3331 
 H                    -0.1008    9.0284   -1.9081 
 H                     0.9957    9.6004   -0.6493 
 H                    -1.3401    9.6574    0.1627 
 H                    -0.3566    8.5367    1.1094 
 H                    -2.3241    7.8312   -1.1274 
 H                    -2.449     7.4493    0.5993 
<map id="variableMap"/></module> 
</module> NAtoms=     36 NQM=     36 NQMF=      0 NMic=      0 NMicF=      0 NTot=     36.
                    Isotopes and Nuclear Properties:
 (Nuclear quadrupole moments (NQMom) in fm**2, nuclear magnetic moments (NMagM)
  in nuclear magnetons)
<module cmlx:lineCount="3" cmlx:templateRef="l101.isotope">  Atom         1           2           3           4           5           6           7           8           9          10
 IAtWgt=          16          12          16          12          12          12          12          16          12          16
</module> AtmWgt=  15.9949146  12.0000000  15.9949146  12.0000000  12.0000000  12.0000000  12.0000000  15.9949146  12.0000000  15.9949146
 NucSpn=           0           0           0           0           0           0           0           0           0           0
 AtZEff=   0.0000000   0.0000000   0.0000000   0.0000000   0.0000000   0.0000000   0.0000000   0.0000000   0.0000000   0.0000000
 NQMom=    0.0000000   0.0000000   0.0000000   0.0000000   0.0000000   0.0000000   0.0000000   0.0000000   0.0000000   0.0000000
 NMagM=    0.0000000   0.0000000   0.0000000   0.0000000   0.0000000   0.0000000   0.0000000   0.0000000   0.0000000   0.0000000
<module cmlx:lineCount="3" cmlx:templateRef="l101.isotope">  Atom        11          12          13          14          15          16          17          18          19          20
 IAtWgt=          12          12          12          12          12          12          12          14          12          12
</module> AtmWgt=  12.0000000  12.0000000  12.0000000  12.0000000  12.0000000  12.0000000  12.0000000  14.0030740  12.0000000  12.0000000
 NucSpn=           0           0           0           0           0           0           0           2           0           0
 AtZEff=   0.0000000   0.0000000   0.0000000   0.0000000   0.0000000   0.0000000   0.0000000   0.0000000   0.0000000   0.0000000
 NQMom=    0.0000000   0.0000000   0.0000000   0.0000000   0.0000000   0.0000000   0.0000000   2.0440000   0.0000000   0.0000000
 NMagM=    0.0000000   0.0000000   0.0000000   0.0000000   0.0000000   0.0000000   0.0000000   0.4037610   0.0000000   0.0000000
<module cmlx:lineCount="3" cmlx:templateRef="l101.isotope">  Atom        21          22          23          24          25          26          27          28          29          30
 IAtWgt=          12           1           1           1           1           1           1           1           1           1
</module> AtmWgt=  12.0000000   1.0078250   1.0078250   1.0078250   1.0078250   1.0078250   1.0078250   1.0078250   1.0078250   1.0078250
 NucSpn=           0           1           1           1           1           1           1           1           1           1
 AtZEff=   0.0000000   0.0000000   0.0000000   0.0000000   0.0000000   0.0000000   0.0000000   0.0000000   0.0000000   0.0000000
 NQMom=    0.0000000   0.0000000   0.0000000   0.0000000   0.0000000   0.0000000   0.0000000   0.0000000   0.0000000   0.0000000
 NMagM=    0.0000000   2.7928460   2.7928460   2.7928460   2.7928460   2.7928460   2.7928460   2.7928460   2.7928460   2.7928460
<module cmlx:lineCount="3" cmlx:templateRef="l101.isotope">  Atom        31          32          33          34          35          36
 IAtWgt=           1           1           1           1           1           1
</module> AtmWgt=   1.0078250   1.0078250   1.0078250   1.0078250   1.0078250   1.0078250
 NucSpn=           1           1           1           1           1           1
 AtZEff=   0.0000000   0.0000000   0.0000000   0.0000000   0.0000000   0.0000000
 NQMom=    0.0000000   0.0000000   0.0000000   0.0000000   0.0000000   0.0000000
 NMagM=    2.7928460   2.7928460   2.7928460   2.7928460   2.7928460   2.7928460

<module cmlx:lineCount="233" cmlx:templateRef="l103"><list cmlx:templateRef="berny"><scalar dataType="xsd:string" dictRef="g:optimization">Initialization pass.</scalar></list><module cmlx:lineCount="226" cmlx:templateRef="l103.init"><list cmlx:templateRef="length"><array dataType="xsd:string" size="39" dictRef="g:symbol">R1 R2 R3 R4 R5 R6 R7 R8 R9 R10 R11 R12 R13 R14 R15 R16 R17 R18 R19 R20 R21 R22 R23 R24 R25 R26 R27 R28 R29 R30 R31 R32 R33 R34 R35 R36 R37 R38 R39</array><array dataType="xsd:integer" size="39" dictRef="g:atom1">1 2 2 3 4 4 5 5 6 6 7 7 8 9 11 11 12 12 13 13 14 15 15 15 16 16 16 17 17 17 18 19 19 19 20 20 20 21 21</array><array dataType="xsd:integer" size="39" dictRef="g:atom2">2 3 4 22 5 9 6 23 7 14 8 11 9 10 12 21 13 18 14 15 24 16 25 26 17 27 28 18 29 30 19 20 31 32 21 33 34 35 36</array><array dataType="xsd:double" size="39" dictRef="cc:distance">1.2187 1.3526 1.4676 0.9761 1.3412 1.4712 1.4537 1.0866 1.3906 1.3918 1.414 1.4039 1.3919 1.2247 1.4097 1.5084 1.4132 1.3884 1.4058 1.5089 1.0879 1.5211 1.0967 1.0964 1.52 1.0955 1.0978 1.4582 1.0965 1.0967 1.4579 1.5191 1.0969 1.0965 1.5222 1.0955 1.0978 1.0968 1.096</array><array delimiter="|" dataType="xsd:string" size="39" dictRef="g:deriv">|estimate D2E/DX2|estimate D2E/DX2|estimate D2E/DX2|estimate D2E/DX2|estimate D2E/DX2|estimate D2E/DX2|estimate D2E/DX2|estimate D2E/DX2|estimate D2E/DX2|estimate D2E/DX2|estimate D2E/DX2|estimate D2E/DX2|estimate D2E/DX2|estimate D2E/DX2|estimate D2E/DX2|estimate D2E/DX2|estimate D2E/DX2|estimate D2E/DX2|estimate D2E/DX2|estimate D2E/DX2|estimate D2E/DX2|estimate D2E/DX2|estimate D2E/DX2|estimate D2E/DX2|estimate D2E/DX2|estimate D2E/DX2|estimate D2E/DX2|estimate D2E/DX2|estimate D2E/DX2|estimate D2E/DX2|estimate D2E/DX2|estimate D2E/DX2|estimate D2E/DX2|estimate D2E/DX2|estimate D2E/DX2|estimate D2E/DX2|estimate D2E/DX2|estimate D2E/DX2|estimate D2E/DX2|</array></list><list cmlx:templateRef="angle"><array dataType="xsd:string" size="71" dictRef="g:symbol">A1 A2 A3 A4 A5 A6 A7 A8 A9 A10 A11 A12 A13 A14 A15 A16 A17 A18 A19 A20 A21 A22 A23 A24 A25 A26 A27 A28 A29 A30 A31 A32 A33 A34 A35 A36 A37 A38 A39 A40 A41 A42 A43 A44 A45 A46 A47 A48 A49 A50 A51 A52 A53 A54 A55 A56 A57 A58 A59 A60 A61 A62 A63 A64 A65 A66 A67 A68 A69 A70 A71</array><array dataType="xsd:integer" size="71" dictRef="g:atom1">1 1 3 2 2 2 5 4 4 6 5 5 7 6 6 8 7 4 4 8 7 7 12 11 11 13 12 12 14 6 6 13 13 13 13 16 16 25 15 15 15 17 17 27 16 16 16 18 18 29 12 12 17 18 18 18 20 20 31 19 19 19 21 21 33 11 11 11 20 20 35</array><array dataType="xsd:integer" size="71" dictRef="g:atom2">2 2 2 3 4 4 4 5 5 5 6 6 6 7 7 7 8 9 9 9 11 11 11 12 12 12 13 13 13 14 14 14 15 15 15 15 15 15 16 16 16 16 16 16 17 17 17 17 17 17 18 18 18 19 19 19 19 19 19 20 20 20 20 20 20 21 21 21 21 21 21</array><array dataType="xsd:integer" size="71" dictRef="g:atom3">3 4 4 22 5 9 9 6 23 23 7 14 14 8 11 11 9 8 10 10 12 21 21 13 18 18 14 15 15 13 24 24 16 25 26 25 26 26 17 27 28 27 28 28 18 29 30 29 30 30 17 19 19 20 31 32 31 32 32 21 33 34 33 34 34 20 35 36 35 36 36</array><array dataType="xsd:double" size="71" dictRef="cc:angle">123.4151 123.7152 112.7232 114.7574 117.1759 120.343 122.4048 119.7471 121.8484 118.3621 119.4168 121.78 118.7967 119.7501 122.1093 118.138 122.4393 116.1663 122.4503 121.3067 119.3771 120.336 120.2605 118.4265 120.9237 120.6499 120.9491 120.1746 118.867 120.3129 120.3732 119.306 111.0197 108.6116 110.2595 110.2641 108.8229 107.809 109.5772 110.0665 109.8881 110.281 109.7043 107.2946 111.1023 108.7423 110.3737 110.4122 109.0894 107.0386 120.9332 120.2843 118.6941 110.6499 109.346 110.3298 110.5734 108.7519 107.1261 109.6865 110.3668 109.6586 110.0291 109.7958 107.2704 111.5097 108.5182 110.5985 110.0257 108.2292 107.896</array><array delimiter="|" dataType="xsd:string" size="71" dictRef="g:deriv">|estimate D2E/DX2|estimate D2E/DX2|estimate D2E/DX2|estimate D2E/DX2|estimate D2E/DX2|estimate D2E/DX2|estimate D2E/DX2|estimate D2E/DX2|estimate D2E/DX2|estimate D2E/DX2|estimate D2E/DX2|estimate D2E/DX2|estimate D2E/DX2|estimate D2E/DX2|estimate D2E/DX2|estimate D2E/DX2|estimate D2E/DX2|estimate D2E/DX2|estimate D2E/DX2|estimate D2E/DX2|estimate D2E/DX2|estimate D2E/DX2|estimate D2E/DX2|estimate D2E/DX2|estimate D2E/DX2|estimate D2E/DX2|estimate D2E/DX2|estimate D2E/DX2|estimate D2E/DX2|estimate D2E/DX2|estimate D2E/DX2|estimate D2E/DX2|estimate D2E/DX2|estimate D2E/DX2|estimate D2E/DX2|estimate D2E/DX2|estimate D2E/DX2|estimate D2E/DX2|estimate D2E/DX2|estimate D2E/DX2|estimate D2E/DX2|estimate D2E/DX2|estimate D2E/DX2|estimate D2E/DX2|estimate D2E/DX2|estimate D2E/DX2|estimate D2E/DX2|estimate D2E/DX2|estimate D2E/DX2|estimate D2E/DX2|estimate D2E/DX2|estimate D2E/DX2|estimate D2E/DX2|estimate D2E/DX2|estimate D2E/DX2|estimate D2E/DX2|estimate D2E/DX2|estimate D2E/DX2|estimate D2E/DX2|estimate D2E/DX2|estimate D2E/DX2|estimate D2E/DX2|estimate D2E/DX2|estimate D2E/DX2|estimate D2E/DX2|estimate D2E/DX2|estimate D2E/DX2|estimate D2E/DX2|estimate D2E/DX2|estimate D2E/DX2|estimate D2E/DX2|</array></list><list cmlx:templateRef="dihed"><array dataType="xsd:string" size="109" dictRef="g:symbol">D1 D2 D3 D4 D5 D6 D7 D8 D9 D10 D11 D12 D13 D14 D15 D16 D17 D18 D19 D20 D21 D22 D23 D24 D25 D26 D27 D28 D29 D30 D31 D32 D33 D34 D35 D36 D37 D38 D39 D40 D41 D42 D43 D44 D45 D46 D47 D48 D49 D50 D51 D52 D53 D54 D55 D56 D57 D58 D59 D60 D61 D62 D63 D64 D65 D66 D67 D68 D69 D70 D71 D72 D73 D74 D75 D76 D77 D78 D79 D80 D81 D82 D83 D84 D85 D86 D87 D88 D89 D90 D91 D92 D93 D94 D95 D96 D97 D98 D99 D100 D101 D102 D103 D104 D105 D106 D107 D108 D109</array><array dataType="xsd:integer" size="109" dictRef="g:atom1">1 4 1 1 3 3 2 2 9 9 2 2 5 5 4 4 23 23 5 5 14 14 5 5 7 7 6 11 6 6 8 8 7 7 7 7 21 21 7 7 7 12 12 12 11 11 18 18 11 11 13 13 12 12 15 15 12 12 12 14 14 14 13 13 13 25 25 25 26 26 26 15 15 15 27 27 27 28 28 28 16 16 29 29 30 30 12 12 12 17 17 17 18 18 18 31 31 31 32 32 32 19 19 19 33 33 33 34 34</array><array dataType="xsd:integer" size="109" dictRef="g:atom2">2 2 2 2 2 2 4 4 4 4 4 4 4 4 5 5 5 5 6 6 6 6 6 6 6 6 7 7 7 7 7 7 8 8 11 11 11 11 11 11 11 11 11 11 12 12 12 12 12 12 12 12 13 13 13 13 13 13 13 13 13 13 15 15 15 15 15 15 15 15 15 16 16 16 16 16 16 16 16 16 17 17 17 17 17 17 18 18 18 18 18 18 19 19 19 19 19 19 19 19 19 20 20 20 20 20 20 20 20</array><array dataType="xsd:integer" size="109" dictRef="g:atom3">3 3 4 4 4 4 5 5 5 5 9 9 9 9 6 6 6 6 7 7 7 7 14 14 14 14 8 8 11 11 11 11 9 9 12 12 12 12 21 21 21 21 21 21 13 13 13 13 18 18 18 18 14 14 14 14 15 15 15 15 15 15 16 16 16 16 16 16 16 16 16 17 17 17 17 17 17 17 17 17 18 18 18 18 18 18 19 19 19 19 19 19 20 20 20 20 20 20 20 20 20 21 21 21 21 21 21 21 21</array><array dataType="xsd:integer" size="109" dictRef="g:atom4">22 22 5 9 5 9 6 23 6 23 8 10 8 10 7 14 7 14 8 11 8 11 13 24 13 24 9 9 12 21 12 21 4 10 13 18 13 18 20 35 36 20 35 36 14 15 14 15 17 19 17 19 6 24 6 24 16 25 26 16 25 26 17 27 28 17 27 28 17 27 28 18 29 30 18 29 30 18 29 30 12 19 12 19 12 19 20 31 32 20 31 32 21 33 34 21 33 34 21 33 34 11 35 36 11 35 36 11 35</array><array dataType="xsd:double" size="109" dictRef="cc:dihed">-174.2072 10.0512 -108.4571 68.4412 67.2697 -115.832 177.0399 -0.5495 0.2105 -177.3788 -174.5886 8.5594 2.1429 -174.709 -1.7133 179.2269 175.9598 -3.1001 0.7879 -179.8177 179.8759 -0.7296 178.2249 -0.7491 -0.8406 -179.8146 1.7241 -177.6943 1.7321 179.8687 -178.864 -0.7275 -3.1066 173.7843 -1.1338 178.8401 -179.2718 0.702 159.2179 -79.4378 38.7323 -22.6621 98.6822 -143.1477 -0.3951 -179.2745 179.631 0.7516 174.8331 -8.6298 -5.1936 171.3434 1.4074 -179.6077 -179.6988 -0.714 -25.3086 96.0852 -145.9905 155.7888 -82.8174 35.1069 52.3534 173.7915 -68.2574 -68.0662 53.3719 171.323 173.8804 -64.6815 53.2696 -56.926 -178.6426 64.2229 -178.2348 60.0485 -57.086 63.7964 -57.9202 -175.0547 33.8044 -142.7866 154.5414 -22.0496 -88.0954 95.3135 37.6834 -84.344 158.0808 -145.7028 92.2698 -25.3054 -58.0092 -179.3978 62.6393 63.2955 -58.0931 -176.056 -179.3436 59.2678 -58.6951 50.3797 -70.084 172.2455 171.9711 51.5074 -66.1631 -70.1857 169.3506</array><array delimiter="|" dataType="xsd:string" size="109" dictRef="g:deriv">|estimate D2E/DX2|estimate D2E/DX2|estimate D2E/DX2|estimate D2E/DX2|estimate D2E/DX2|estimate D2E/DX2|estimate D2E/DX2|estimate D2E/DX2|estimate D2E/DX2|estimate D2E/DX2|estimate D2E/DX2|estimate D2E/DX2|estimate D2E/DX2|estimate D2E/DX2|estimate D2E/DX2|estimate D2E/DX2|estimate D2E/DX2|estimate D2E/DX2|estimate D2E/DX2|estimate D2E/DX2|estimate D2E/DX2|estimate D2E/DX2|estimate D2E/DX2|estimate D2E/DX2|estimate D2E/DX2|estimate D2E/DX2|estimate D2E/DX2|estimate D2E/DX2|estimate D2E/DX2|estimate D2E/DX2|estimate D2E/DX2|estimate D2E/DX2|estimate D2E/DX2|estimate D2E/DX2|estimate D2E/DX2|estimate D2E/DX2|estimate D2E/DX2|estimate D2E/DX2|estimate D2E/DX2|estimate D2E/DX2|estimate D2E/DX2|estimate D2E/DX2|estimate D2E/DX2|estimate D2E/DX2|estimate D2E/DX2|estimate D2E/DX2|estimate D2E/DX2|estimate D2E/DX2|estimate D2E/DX2|estimate D2E/DX2|estimate D2E/DX2|estimate D2E/DX2|estimate D2E/DX2|estimate D2E/DX2|estimate D2E/DX2|estimate D2E/DX2|estimate D2E/DX2|estimate D2E/DX2|estimate D2E/DX2|estimate D2E/DX2|estimate D2E/DX2|estimate D2E/DX2|estimate D2E/DX2|estimate D2E/DX2|estimate D2E/DX2|estimate D2E/DX2|estimate D2E/DX2|estimate D2E/DX2|estimate D2E/DX2|estimate D2E/DX2|estimate D2E/DX2|estimate D2E/DX2|estimate D2E/DX2|estimate D2E/DX2|estimate D2E/DX2|estimate D2E/DX2|estimate D2E/DX2|estimate D2E/DX2|estimate D2E/DX2|estimate D2E/DX2|estimate D2E/DX2|estimate D2E/DX2|estimate D2E/DX2|estimate D2E/DX2|estimate D2E/DX2|estimate D2E/DX2|estimate D2E/DX2|estimate D2E/DX2|estimate D2E/DX2|estimate D2E/DX2|estimate D2E/DX2|estimate D2E/DX2|estimate D2E/DX2|estimate D2E/DX2|estimate D2E/DX2|estimate D2E/DX2|estimate D2E/DX2|estimate D2E/DX2|estimate D2E/DX2|estimate D2E/DX2|estimate D2E/DX2|estimate D2E/DX2|estimate D2E/DX2|estimate D2E/DX2|estimate D2E/DX2|estimate D2E/DX2|estimate D2E/DX2|estimate D2E/DX2|estimate D2E/DX2|</array></list> ! D110  D(34,20,21,36)         51.6802         estimate D2E/DX2                !
</module> --------------------------------------------------------------------------------
<module cmlx:lineCount="2" cmlx:templateRef="l103.trust"><scalar dataType="xsd:double" dictRef="g:trustrad">0.3</scalar><scalar dataType="xsd:double" dictRef="g:fncerr">1.0E-7</scalar><scalar dataType="xsd:double" dictRef="g:grderr">1.0E-6</scalar><scalar dataType="xsd:integer" dictRef="g:nstep">216</scalar><scalar dataType="xsd:integer" dictRef="g:allowedstep">216</scalar></module></module>
<module cmlx:lineCount="42" cmlx:templateRef="l202.orient"><molecule id="mol.l202.orient" cmlx:templateRef="atom"><atomArray><atom id="a1" elementType="O" x3="-4.6146" y3="1.0304" z3="-0.9613"><scalar dataType="xsd:integer" dictRef="cc:serial">1</scalar><scalar dataType="xsd:integer" dictRef="g:atomicType">0</scalar><scalar dataType="xsd:integer" dictRef="cc:atomicNumber">8</scalar></atom><atom id="a2" elementType="C" x3="-3.7647" y3="1.3478" z3="-0.1476"><scalar dataType="xsd:integer" dictRef="cc:serial">2</scalar><scalar dataType="xsd:integer" dictRef="g:atomicType">0</scalar><scalar dataType="xsd:integer" dictRef="cc:atomicNumber">6</scalar></atom><atom id="a3" elementType="O" x3="-3.3144" y3="0.5183" z3="0.8212"><scalar dataType="xsd:integer" dictRef="cc:serial">3</scalar><scalar dataType="xsd:integer" dictRef="g:atomicType">0</scalar><scalar dataType="xsd:integer" dictRef="cc:atomicNumber">8</scalar></atom><atom id="a4" elementType="C" x3="-3.0503" y3="2.6295" z3="-0.1737"><scalar dataType="xsd:integer" dictRef="cc:serial">4</scalar><scalar dataType="xsd:integer" dictRef="g:atomicType">0</scalar><scalar dataType="xsd:integer" dictRef="cc:atomicNumber">6</scalar></atom><atom id="a5" elementType="C" x3="-1.7584" y3="2.6035" z3="-0.5331"><scalar dataType="xsd:integer" dictRef="cc:serial">5</scalar><scalar dataType="xsd:integer" dictRef="g:atomicType">0</scalar><scalar dataType="xsd:integer" dictRef="cc:atomicNumber">6</scalar></atom><atom id="a6" elementType="C" x3="-1.0144" y3="3.8478" z3="-0.6405"><scalar dataType="xsd:integer" dictRef="cc:serial">6</scalar><scalar dataType="xsd:integer" dictRef="g:atomicType">0</scalar><scalar dataType="xsd:integer" dictRef="cc:atomicNumber">6</scalar></atom><atom id="a7" elementType="C" x3="-1.6636" y3="5.0544" z3="-0.4032"><scalar dataType="xsd:integer" dictRef="cc:serial">7</scalar><scalar dataType="xsd:integer" dictRef="g:atomicType">0</scalar><scalar dataType="xsd:integer" dictRef="cc:atomicNumber">6</scalar></atom><atom id="a8" elementType="O" x3="-3.0314" y3="5.0566" z3="-0.0449"><scalar dataType="xsd:integer" dictRef="cc:serial">8</scalar><scalar dataType="xsd:integer" dictRef="g:atomicType">0</scalar><scalar dataType="xsd:integer" dictRef="cc:atomicNumber">8</scalar></atom><atom id="a9" elementType="C" x3="-3.7625" y3="3.8834" z3="0.1177"><scalar dataType="xsd:integer" dictRef="cc:serial">9</scalar><scalar dataType="xsd:integer" dictRef="g:atomicType">0</scalar><scalar dataType="xsd:integer" dictRef="cc:atomicNumber">6</scalar></atom><atom id="a10" elementType="O" x3="-4.9131" y3="3.9035" z3="0.5367"><scalar dataType="xsd:integer" dictRef="cc:serial">10</scalar><scalar dataType="xsd:integer" dictRef="g:atomicType">0</scalar><scalar dataType="xsd:integer" dictRef="cc:atomicNumber">8</scalar></atom><atom id="a11" elementType="C" x3="-1.0012" y3="6.2888" z3="-0.4948"><scalar dataType="xsd:integer" dictRef="cc:serial">11</scalar><scalar dataType="xsd:integer" dictRef="g:atomicType">0</scalar><scalar dataType="xsd:integer" dictRef="cc:atomicNumber">6</scalar></atom><atom id="a12" elementType="C" x3="0.3563" y3="6.3187" z3="-0.8735"><scalar dataType="xsd:integer" dictRef="cc:serial">12</scalar><scalar dataType="xsd:integer" dictRef="g:atomicType">0</scalar><scalar dataType="xsd:integer" dictRef="cc:atomicNumber">6</scalar></atom><atom id="a13" elementType="C" x3="1.0116" y3="5.0922" z3="-1.1255"><scalar dataType="xsd:integer" dictRef="cc:serial">13</scalar><scalar dataType="xsd:integer" dictRef="g:atomicType">0</scalar><scalar dataType="xsd:integer" dictRef="cc:atomicNumber">6</scalar></atom><atom id="a14" elementType="C" x3="0.3315" y3="3.8689" z3="-0.9945"><scalar dataType="xsd:integer" dictRef="cc:serial">14</scalar><scalar dataType="xsd:integer" dictRef="g:atomicType">0</scalar><scalar dataType="xsd:integer" dictRef="cc:atomicNumber">6</scalar></atom><atom id="a15" elementType="C" x3="2.4686" y3="5.0773" z3="-1.5174"><scalar dataType="xsd:integer" dictRef="cc:serial">15</scalar><scalar dataType="xsd:integer" dictRef="g:atomicType">0</scalar><scalar dataType="xsd:integer" dictRef="cc:atomicNumber">6</scalar></atom><atom id="a16" elementType="C" x3="2.8706" y3="6.3895" z3="-2.1734"><scalar dataType="xsd:integer" dictRef="cc:serial">16</scalar><scalar dataType="xsd:integer" dictRef="g:atomicType">0</scalar><scalar dataType="xsd:integer" dictRef="cc:atomicNumber">6</scalar></atom><atom id="a17" elementType="C" x3="2.4665" y3="7.5506" z3="-1.2795"><scalar dataType="xsd:integer" dictRef="cc:serial">17</scalar><scalar dataType="xsd:integer" dictRef="g:atomicType">0</scalar><scalar dataType="xsd:integer" dictRef="cc:atomicNumber">6</scalar></atom><atom id="a18" elementType="N" x3="1.0361" y3="7.5229" z3="-0.9974"><scalar dataType="xsd:integer" dictRef="cc:serial">18</scalar><scalar dataType="xsd:integer" dictRef="g:atomicType">0</scalar><scalar dataType="xsd:integer" dictRef="cc:atomicNumber">7</scalar></atom><atom id="a19" elementType="C" x3="0.313" y3="8.7866" z3="-0.9214"><scalar dataType="xsd:integer" dictRef="cc:serial">19</scalar><scalar dataType="xsd:integer" dictRef="g:atomicType">0</scalar><scalar dataType="xsd:integer" dictRef="cc:atomicNumber">6</scalar></atom><atom id="a20" elementType="C" x3="-0.7931" y3="8.7093" z3="0.117"><scalar dataType="xsd:integer" dictRef="cc:serial">20</scalar><scalar dataType="xsd:integer" dictRef="g:atomicType">0</scalar><scalar dataType="xsd:integer" dictRef="cc:atomicNumber">6</scalar></atom><atom id="a21" elementType="C" x3="-1.7455" y3="7.5742" z3="-0.2318"><scalar dataType="xsd:integer" dictRef="cc:serial">21</scalar><scalar dataType="xsd:integer" dictRef="g:atomicType">0</scalar><scalar dataType="xsd:integer" dictRef="cc:atomicNumber">6</scalar></atom><atom id="a22" elementType="H" x3="-2.6991" y3="0.9293" z3="1.4578"><scalar dataType="xsd:integer" dictRef="cc:serial">22</scalar><scalar dataType="xsd:integer" dictRef="g:atomicType">0</scalar><scalar dataType="xsd:integer" dictRef="cc:atomicNumber">1</scalar></atom><atom id="a23" elementType="H" x3="-1.2524" y3="1.676" z3="-0.7868"><scalar dataType="xsd:integer" dictRef="cc:serial">23</scalar><scalar dataType="xsd:integer" dictRef="g:atomicType">0</scalar><scalar dataType="xsd:integer" dictRef="cc:atomicNumber">1</scalar></atom><atom id="a24" elementType="H" x3="0.8638" y3="2.9402" z3="-1.1889"><scalar dataType="xsd:integer" dictRef="cc:serial">24</scalar><scalar dataType="xsd:integer" dictRef="g:atomicType">0</scalar><scalar dataType="xsd:integer" dictRef="cc:atomicNumber">1</scalar></atom><atom id="a25" elementType="H" x3="3.0712" y3="4.902" z3="-0.618"><scalar dataType="xsd:integer" dictRef="cc:serial">25</scalar><scalar dataType="xsd:integer" dictRef="g:atomicType">0</scalar><scalar dataType="xsd:integer" dictRef="cc:atomicNumber">1</scalar></atom><atom id="a26" elementType="H" x3="2.665" y3="4.2569" z3="-2.2178"><scalar dataType="xsd:integer" dictRef="cc:serial">26</scalar><scalar dataType="xsd:integer" dictRef="g:atomicType">0</scalar><scalar dataType="xsd:integer" dictRef="cc:atomicNumber">1</scalar></atom><atom id="a27" elementType="H" x3="3.9515" y3="6.4053" z3="-2.351"><scalar dataType="xsd:integer" dictRef="cc:serial">27</scalar><scalar dataType="xsd:integer" dictRef="g:atomicType">0</scalar><scalar dataType="xsd:integer" dictRef="cc:atomicNumber">1</scalar></atom><atom id="a28" elementType="H" x3="2.378" y3="6.4852" z3="-3.1498"><scalar dataType="xsd:integer" dictRef="cc:serial">28</scalar><scalar dataType="xsd:integer" dictRef="g:atomicType">0</scalar><scalar dataType="xsd:integer" dictRef="cc:atomicNumber">1</scalar></atom><atom id="a29" elementType="H" x3="2.7403" y3="8.4892" z3="-1.7758"><scalar dataType="xsd:integer" dictRef="cc:serial">29</scalar><scalar dataType="xsd:integer" dictRef="g:atomicType">0</scalar><scalar dataType="xsd:integer" dictRef="cc:atomicNumber">1</scalar></atom><atom id="a30" elementType="H" x3="3.0195" y3="7.5143" z3="-0.3331"><scalar dataType="xsd:integer" dictRef="cc:serial">30</scalar><scalar dataType="xsd:integer" dictRef="g:atomicType">0</scalar><scalar dataType="xsd:integer" dictRef="cc:atomicNumber">1</scalar></atom><atom id="a31" elementType="H" x3="-0.1008" y3="9.0284" z3="-1.9081"><scalar dataType="xsd:integer" dictRef="cc:serial">31</scalar><scalar dataType="xsd:integer" dictRef="g:atomicType">0</scalar><scalar dataType="xsd:integer" dictRef="cc:atomicNumber">1</scalar></atom><atom id="a32" elementType="H" x3="0.9957" y3="9.6004" z3="-0.6493"><scalar dataType="xsd:integer" dictRef="cc:serial">32</scalar><scalar dataType="xsd:integer" dictRef="g:atomicType">0</scalar><scalar dataType="xsd:integer" dictRef="cc:atomicNumber">1</scalar></atom><atom id="a33" elementType="H" x3="-1.3401" y3="9.6574" z3="0.1627"><scalar dataType="xsd:integer" dictRef="cc:serial">33</scalar><scalar dataType="xsd:integer" dictRef="g:atomicType">0</scalar><scalar dataType="xsd:integer" dictRef="cc:atomicNumber">1</scalar></atom><atom id="a34" elementType="H" x3="-0.3566" y3="8.5367" z3="1.1094"><scalar dataType="xsd:integer" dictRef="cc:serial">34</scalar><scalar dataType="xsd:integer" dictRef="g:atomicType">0</scalar><scalar dataType="xsd:integer" dictRef="cc:atomicNumber">1</scalar></atom><atom id="a35" elementType="H" x3="-2.3241" y3="7.8312" z3="-1.1274"><scalar dataType="xsd:integer" dictRef="cc:serial">35</scalar><scalar dataType="xsd:integer" dictRef="g:atomicType">0</scalar><scalar dataType="xsd:integer" dictRef="cc:atomicNumber">1</scalar></atom><atom id="a36" elementType="H" x3="-2.449" y3="7.4493" z3="0.5993"><scalar dataType="xsd:integer" dictRef="cc:serial">36</scalar><scalar dataType="xsd:integer" dictRef="g:atomicType">0</scalar><scalar dataType="xsd:integer" dictRef="cc:atomicNumber">1</scalar></atom></atomArray><formula formalCharge="0" concise="C 16 H 15 N 1 O 4"><atomArray elementType="C H N O" count="16.0 15.0 1.0 4.0"/></formula><bondArray><bond atomRefs2="a1 a2" id="a1_a2" order="D"/><bond atomRefs2="a2 a3" id="a2_a3" order="S"/><bond atomRefs2="a2 a4" id="a2_a4" order="S"/><bond atomRefs2="a3 a22" id="a3_a22" order="S"/><bond atomRefs2="a4 a5" id="a4_a5" order="D"/><bond atomRefs2="a4 a9" id="a4_a9" order="S"/><bond atomRefs2="a5 a6" id="a5_a6" order="S"/><bond atomRefs2="a5 a23" id="a5_a23" order="S"/><bond atomRefs2="a6 a7" id="a6_a7" order="D"/><bond atomRefs2="a6 a14" id="a6_a14" order="S"/><bond atomRefs2="a7 a8" id="a7_a8" order="S"/><bond atomRefs2="a7 a11" id="a7_a11" order="S"/><bond atomRefs2="a8 a9" id="a8_a9" order="S"/><bond atomRefs2="a9 a10" id="a9_a10" order="D"/><bond atomRefs2="a11 a12" id="a11_a12" order="D"/><bond atomRefs2="a11 a21" id="a11_a21" order="S"/><bond atomRefs2="a12 a13" id="a12_a13" order="S"/><bond atomRefs2="a12 a18" id="a12_a18" order="S"/><bond atomRefs2="a13 a14" id="a13_a14" order="D"/><bond atomRefs2="a13 a15" id="a13_a15" order="S"/><bond atomRefs2="a14 a24" id="a14_a24" order="S"/><bond atomRefs2="a15 a16" id="a15_a16" order="S"/><bond atomRefs2="a15 a25" id="a15_a25" order="S"/><bond atomRefs2="a15 a26" id="a15_a26" order="S"/><bond atomRefs2="a16 a17" id="a16_a17" order="S"/><bond atomRefs2="a16 a27" id="a16_a27" order="S"/><bond atomRefs2="a16 a28" id="a16_a28" order="S"/><bond atomRefs2="a17 a18" id="a17_a18" order="S"/><bond atomRefs2="a17 a29" id="a17_a29" order="S"/><bond atomRefs2="a17 a30" id="a17_a30" order="S"/><bond atomRefs2="a18 a19" id="a18_a19" order="S"/><bond atomRefs2="a19 a20" id="a19_a20" order="S"/><bond atomRefs2="a19 a31" id="a19_a31" order="S"/><bond atomRefs2="a19 a32" id="a19_a32" order="S"/><bond atomRefs2="a20 a21" id="a20_a21" order="S"/><bond atomRefs2="a20 a33" id="a20_a33" order="S"/><bond atomRefs2="a20 a34" id="a20_a34" order="S"/><bond atomRefs2="a21 a35" id="a21_a35" order="S"/><bond atomRefs2="a21 a36" id="a21_a36" order="S"/></bondArray><property dictRef="cml:molmass"><scalar dataType="xsd:double" units="unit:dalton" xmlns:unit="http://www.xml-cml.org/unit/si/">285.2946</scalar></property></molecule></module><module cmlx:lineCount="157" cmlx:templateRef="l202.distmat"><array dataType="xsd:double" size="665" dictRef="cc:distance">0.0 1.21868 0.0 2.264966 1.352558 0.0 2.371596 1.467584 2.348774 0.0 3.28875 2.398048 2.933142 1.341212 0.0 4.582804 3.74928 4.302573 2.418067 1.453738 0.0 5.0212 4.268353 4.98001 2.802811 2.45617 1.390559 0.0 4.422284 3.781993 4.628864 2.430589 2.806522 2.425742 1.413952 0.0 3.167006 2.549442 3.46693 1.471193 2.465381 2.850998 2.45926 1.391885 0.0 3.253891 2.884214 3.754512 2.36596 3.575836 4.072931 3.573127 2.282256 1.224682 0.0 6.397269 5.671945 6.354638 4.206233 3.76248 2.44538 1.40389 2.417114 3.712935 4.696447 0.0 7.258352 6.497647 7.070409 5.069994 4.288419 2.835217 2.428916 3.708906 4.886479 5.965604 1.40965 0.0 6.941132 6.147346 6.589725 4.844569 3.770605 2.426609 2.771253 4.18507 5.079249 6.267215 2.425077 1.413232 0.0 5.702814 4.883855 5.274076 3.694103 2.486324 1.391836 2.394884 3.690727 4.242409 5.463662 2.807438 2.452912 1.40576 0.0 8.176697 7.391857 7.726359 6.185104 4.995604 3.796303 4.279841 5.693741 6.55176 7.751556 3.814834 2.533277 1.508859 2.51015 0.0 9.28533 8.576119 9.038409 7.293384 6.200969 4.889095 5.047283 6.414105 7.451691 8.608764 4.221217 2.831335 2.497391 3.766996 1.521121 0.0 9.631004 8.864749 9.342644 7.474965 6.548335 5.122081 4.904757 6.162076 7.36213 8.429615 3.772643 2.476965 2.860801 4.265485 2.484716 1.520035 0.0 8.607222 7.867763 8.443848 6.428259 5.676733 4.22354 3.706069 4.851232 6.125028 7.130673 2.434379 1.388372 2.434196 3.721315 2.881565 2.456209 1.458215 0.0 9.189204 8.518342 9.195622 7.055546 6.532396 5.121781 4.254973 5.085879 6.459938 7.29951 2.85449 2.468745 3.765407 4.918278 4.331366 3.722218 2.508684 1.457939 0.0 8.644773 7.943054 8.599147 6.491797 6.215724 4.925136 3.792977 4.287005 5.666273 6.343994 2.505279 2.831462 4.228967 5.092114 5.147949 4.90409 3.730655 2.448552 1.519114 0.0 7.182285 6.546168 7.304518 5.114288 4.97984 3.819372 2.52695 2.833157 4.220479 4.909004 1.508444 2.530933 3.815839 4.315656 5.06418 5.146038 4.340412 2.885494 2.486541 1.522228 0.0 3.087298 1.97179 0.976102 2.382397 2.766143 3.969725 4.642417 4.404899 3.413707 3.820483 5.95145 6.61937 6.145931 4.882577 7.263804 8.603543 8.832771 7.965883 8.744741 8.121513 6.92234 0.0 3.428066 2.613033 2.859681 2.125441 1.08658 2.189695 3.424883 3.891492 3.462851 4.484878 4.628854 4.914275 4.112279 2.713059 5.093963 6.413959 6.970215 6.282342 7.282117 7.105992 5.94474 2.772856 0.0 5.806204 5.004304 5.231009 4.055533 2.723853 2.156876 3.387465 4.57826 4.898927 6.105589 3.895269 3.430932 2.158001 1.087942 2.692674 4.11025 4.881869 4.589935 5.878378 6.142736 5.403558 4.872679 2.497637 0.0 8.612704 7.719012 7.878071 6.544801 5.349331 4.219475 4.742119 6.1314 6.948256 8.128922 4.303816 3.072947 2.129715 2.952119 1.096712 2.161519 2.796127 3.339864 4.77387 5.474356 5.521811 7.306686 5.397137 3.007857 0.0 8.061121 7.354565 7.678924 6.284221 5.013822 4.02408 4.760836 6.148983 6.848855 8.070921 4.531928 3.374649 2.150483 2.663124 1.096444 2.142948 3.430491 3.848304 5.265998 6.101935 5.865252 7.304555 4.904572 2.456961 1.772149 0.0 10.207786 9.485411 9.874863 8.247576 7.096577 5.841813 6.094933 7.476495 8.482939 9.652924 5.290396 3.887926 3.445155 4.623615 2.158116 1.095507 2.159873 3.40306 4.577448 5.823287 6.189761 9.419343 7.20372 4.784484 2.45726 2.507678 0.0 9.134595 8.552125 9.152931 7.29315 6.246961 4.976027 5.091712 6.398665 7.426416 8.56829 4.301929 3.049022 2.811634 3.959609 2.157573 1.097802 2.154282 2.7405 3.811356 5.066999 5.167581 8.824678 6.472401 4.324923 3.065462 2.432347 1.766456 0.0 10.506744 9.796206 10.341134 8.392488 7.511596 6.076946 5.751193 6.934788 8.190552 9.216878 4.525654 3.347935 3.86664 5.268768 3.432441 2.140982 1.096472 2.108065 2.590411 4.01448 4.831518 9.858769 7.95861 5.887029 3.783913 4.255984 2.478003 2.456655 0.0 10.03569 9.169815 9.507613 7.792891 6.854508 5.45986 5.290316 6.537334 7.705983 8.759028 4.206427 2.968859 3.2444 4.577307 2.764964 2.161955 1.096722 2.091708 3.047948 4.020763 4.766453 8.903479 7.248498 5.128531 2.628298 3.780003 2.484034 3.066654 1.763453 0.0 9.232487 8.689945 9.497268 7.256281 6.776253 5.411108 4.527664 5.2759 6.631963 7.443109 3.211471 2.936292 4.164561 5.257565 4.729234 3.982888 3.028211 2.094862 1.096939 2.163824 2.762194 9.147451 7.52604 6.205955 5.362193 5.523837 4.847468 3.762198 2.894838 3.80912 0.0 10.247815 9.540363 10.159915 8.074017 7.520318 6.093684 5.272434 6.101553 7.477489 8.29308 3.870165 3.350918 4.533309 5.780174 4.835439 4.018459 2.600401 2.106849 1.096535 2.140346 3.434235 9.658126 8.238263 6.683325 5.136501 5.813755 4.673457 4.227023 2.355291 2.923621 1.764674 0.0 9.295744 8.661664 9.37308 7.24081 7.100466 5.873897 4.648925 4.906216 6.261719 6.78333 3.448859 3.885666 5.294431 6.135152 6.189204 5.819496 4.58353 3.398271 2.160163 1.095532 2.158634 8.927704 8.038158 7.197553 6.533214 7.132532 6.700438 5.904217 4.666062 4.883115 2.493936 2.473571 0.0 8.874847 8.054532 8.551396 6.617959 6.31393 5.047835 4.015298 4.538509 5.851224 6.523513 2.835846 3.059353 4.327971 5.166066 5.181629 5.079573 3.827418 2.721399 2.152896 1.097807 2.157375 7.967511 7.174067 6.171902 5.286281 6.206208 5.92258 5.461453 4.232898 3.811057 3.067981 2.460325 1.766205 0.0 7.178082 6.713405 7.632578 5.338033 5.291697 4.221358 2.944715 3.061125 4.382282 4.989887 2.128202 3.088149 4.316135 4.77176 5.541303 5.491587 4.801221 3.376817 2.812387 2.159526 1.09678 7.379709 6.257079 5.838525 6.160273 6.233435 6.550843 5.292595 5.147964 5.411599 2.643075 3.79206 2.442871 3.061382 0.0 6.951804 6.286273 6.988342 4.918289 5.024046 4.070133 2.712454 2.545427 3.830517 4.31838 2.154052 3.36409 4.528422 4.805272 5.855732 6.091731 5.263297 3.834161 3.424842 2.135935 1.096011 6.581031 6.056742 5.874035 6.200255 6.654357 7.124648 6.187501 5.800976 5.5478 3.780827 4.248787 2.50918 2.412629 1.772834</array></module><module cmlx:lineCount="6" cmlx:templateRef="l202.stoich"><scalar dataType="xsd:string" dictRef="g:stoichiometry" cmlx:templateRef="stoich">C16H15NO4</scalar><scalar dataType="xsd:string" dictRef="cc:frameworkgroup" cmlx:templateRef="framework">C1[X(C16H15NO4)]</scalar><scalar dataType="xsd:integer" dictRef="cc:degfreedom" cmlx:templateRef="degfreedom">102</scalar><scalar dataType="xsd:string" dictRef="cc:pointgroup">C1</scalar><scalar dataType="xsd:integer" dictRef="cc:operatorcount">1</scalar><scalar dataType="xsd:string" dictRef="cc:largestabelian">C1</scalar><scalar dataType="xsd:integer" dictRef="cc:operatorcount">1</scalar><scalar dataType="xsd:string" dictRef="cc:largestconciseabelian">C1</scalar><scalar dataType="xsd:integer" dictRef="cc:operatorcount">1</scalar></module><module cmlx:lineCount="42" cmlx:templateRef="l202.orient"><molecule id="a36" cmlx:templateRef="atom"><atomArray><atom id="a1" elementType="O" x3="-5.148484" y3="-0.470584" z3="-1.115029"><scalar dataType="xsd:integer" dictRef="cc:serial">1</scalar><scalar dataType="xsd:integer" dictRef="g:atomicType">0</scalar><scalar dataType="xsd:integer" dictRef="cc:atomicNumber">8</scalar></atom><atom id="a2" elementType="C" x3="-4.465429" y3="-0.609468" z3="-0.115366"><scalar dataType="xsd:integer" dictRef="cc:serial">2</scalar><scalar dataType="xsd:integer" dictRef="g:atomicType">0</scalar><scalar dataType="xsd:integer" dictRef="cc:atomicNumber">6</scalar></atom><atom id="a3" elementType="O" x3="-4.897705" y3="-1.239942" z3="1.000454"><scalar dataType="xsd:integer" dictRef="cc:serial">3</scalar><scalar dataType="xsd:integer" dictRef="g:atomicType">0</scalar><scalar dataType="xsd:integer" dictRef="cc:atomicNumber">8</scalar></atom><atom id="a4" elementType="C" x3="-3.058425" y3="-0.201624" z3="-0.027012"><scalar dataType="xsd:integer" dictRef="cc:serial">4</scalar><scalar dataType="xsd:integer" dictRef="g:atomicType">0</scalar><scalar dataType="xsd:integer" dictRef="cc:atomicNumber">6</scalar></atom><atom id="a5" elementType="C" x3="-2.138778" y3="-1.177313" z3="0.006611"><scalar dataType="xsd:integer" dictRef="cc:serial">5</scalar><scalar dataType="xsd:integer" dictRef="g:atomicType">0</scalar><scalar dataType="xsd:integer" dictRef="cc:atomicNumber">6</scalar></atom><atom id="a6" elementType="C" x3="-0.725788" y3="-0.836247" z3="0.028712"><scalar dataType="xsd:integer" dictRef="cc:serial">6</scalar><scalar dataType="xsd:integer" dictRef="g:atomicType">0</scalar><scalar dataType="xsd:integer" dictRef="cc:atomicNumber">6</scalar></atom><atom id="a7" elementType="C" x3="-0.344908" y3="0.500188" z3="-0.021547"><scalar dataType="xsd:integer" dictRef="cc:serial">7</scalar><scalar dataType="xsd:integer" dictRef="g:atomicType">0</scalar><scalar dataType="xsd:integer" dictRef="cc:atomicNumber">6</scalar></atom><atom id="a8" elementType="O" x3="-1.33326" y3="1.509843" z3="-0.076487"><scalar dataType="xsd:integer" dictRef="cc:serial">8</scalar><scalar dataType="xsd:integer" dictRef="g:atomicType">0</scalar><scalar dataType="xsd:integer" dictRef="cc:atomicNumber">8</scalar></atom><atom id="a9" elementType="C" x3="-2.695138" y3="1.223864" z3="-0.047385"><scalar dataType="xsd:integer" dictRef="cc:serial">9</scalar><scalar dataType="xsd:integer" dictRef="g:atomicType">0</scalar><scalar dataType="xsd:integer" dictRef="cc:atomicNumber">6</scalar></atom><atom id="a10" elementType="O" x3="-3.531512" y3="2.116133" z3="0.017274"><scalar dataType="xsd:integer" dictRef="cc:serial">10</scalar><scalar dataType="xsd:integer" dictRef="g:atomicType">0</scalar><scalar dataType="xsd:integer" dictRef="cc:atomicNumber">8</scalar></atom><atom id="a11" elementType="C" x3="1.002814" y3="0.893065" z3="-0.007309"><scalar dataType="xsd:integer" dictRef="cc:serial">11</scalar><scalar dataType="xsd:integer" dictRef="g:atomicType">0</scalar><scalar dataType="xsd:integer" dictRef="cc:atomicNumber">6</scalar></atom><atom id="a12" elementType="C" x3="2.010151" y3="-0.09257" z3="0.022827"><scalar dataType="xsd:integer" dictRef="cc:serial">12</scalar><scalar dataType="xsd:integer" dictRef="g:atomicType">0</scalar><scalar dataType="xsd:integer" dictRef="cc:atomicNumber">6</scalar></atom><atom id="a13" elementType="C" x3="1.621489" y3="-1.450734" z3="0.062286"><scalar dataType="xsd:integer" dictRef="cc:serial">13</scalar><scalar dataType="xsd:integer" dictRef="g:atomicType">0</scalar><scalar dataType="xsd:integer" dictRef="cc:atomicNumber">6</scalar></atom><atom id="a14" elementType="C" x3="0.263561" y3="-1.813896" z3="0.079697"><scalar dataType="xsd:integer" dictRef="cc:serial">14</scalar><scalar dataType="xsd:integer" dictRef="g:atomicType">0</scalar><scalar dataType="xsd:integer" dictRef="cc:atomicNumber">6</scalar></atom><atom id="a15" elementType="C" x3="2.666901" y3="-2.537611" z3="0.111964"><scalar dataType="xsd:integer" dictRef="cc:serial">15</scalar><scalar dataType="xsd:integer" dictRef="g:atomicType">0</scalar><scalar dataType="xsd:integer" dictRef="cc:atomicNumber">6</scalar></atom><atom id="a16" elementType="C" x3="3.978456" y3="-2.061214" z3="-0.493575"><scalar dataType="xsd:integer" dictRef="cc:serial">16</scalar><scalar dataType="xsd:integer" dictRef="g:atomicType">0</scalar><scalar dataType="xsd:integer" dictRef="cc:atomicNumber">6</scalar></atom><atom id="a17" elementType="C" x3="4.393987" y3="-0.751848" z3="0.157118"><scalar dataType="xsd:integer" dictRef="cc:serial">17</scalar><scalar dataType="xsd:integer" dictRef="g:atomicType">0</scalar><scalar dataType="xsd:integer" dictRef="cc:atomicNumber">6</scalar></atom><atom id="a18" elementType="N" x3="3.353159" y3="0.259311" z3="0.013503"><scalar dataType="xsd:integer" dictRef="cc:serial">18</scalar><scalar dataType="xsd:integer" dictRef="g:atomicType">0</scalar><scalar dataType="xsd:integer" dictRef="cc:atomicNumber">7</scalar></atom><atom id="a19" elementType="C" x3="3.748939" y3="1.643559" z3="-0.216287"><scalar dataType="xsd:integer" dictRef="cc:serial">19</scalar><scalar dataType="xsd:integer" dictRef="g:atomicType">0</scalar><scalar dataType="xsd:integer" dictRef="cc:atomicNumber">6</scalar></atom><atom id="a20" elementType="C" x3="2.778728" y3="2.597379" z3="0.459455"><scalar dataType="xsd:integer" dictRef="cc:serial">20</scalar><scalar dataType="xsd:integer" dictRef="g:atomicType">0</scalar><scalar dataType="xsd:integer" dictRef="cc:atomicNumber">6</scalar></atom><atom id="a21" elementType="C" x3="1.370977" y3="2.354698" z3="-0.066399"><scalar dataType="xsd:integer" dictRef="cc:serial">21</scalar><scalar dataType="xsd:integer" dictRef="g:atomicType">0</scalar><scalar dataType="xsd:integer" dictRef="cc:atomicNumber">6</scalar></atom><atom id="a22" elementType="H" x3="-4.281151" y3="-1.202023" z3="1.756231"><scalar dataType="xsd:integer" dictRef="cc:serial">22</scalar><scalar dataType="xsd:integer" dictRef="g:atomicType">0</scalar><scalar dataType="xsd:integer" dictRef="cc:atomicNumber">1</scalar></atom><atom id="a23" elementType="H" x3="-2.415887" y3="-2.227606" z3="-0.020761"><scalar dataType="xsd:integer" dictRef="cc:serial">23</scalar><scalar dataType="xsd:integer" dictRef="g:atomicType">0</scalar><scalar dataType="xsd:integer" dictRef="cc:atomicNumber">1</scalar></atom><atom id="a24" elementType="H" x3="-0.005497" y3="-2.867396" z3="0.116625"><scalar dataType="xsd:integer" dictRef="cc:serial">24</scalar><scalar dataType="xsd:integer" dictRef="g:atomicType">0</scalar><scalar dataType="xsd:integer" dictRef="cc:atomicNumber">1</scalar></atom><atom id="a25" elementType="H" x3="2.816193" y3="-2.832124" z3="1.15779"><scalar dataType="xsd:integer" dictRef="cc:serial">25</scalar><scalar dataType="xsd:integer" dictRef="g:atomicType">0</scalar><scalar dataType="xsd:integer" dictRef="cc:atomicNumber">1</scalar></atom><atom id="a26" elementType="H" x3="2.322892" y3="-3.420767" z3="-0.43929"><scalar dataType="xsd:integer" dictRef="cc:serial">26</scalar><scalar dataType="xsd:integer" dictRef="g:atomicType">0</scalar><scalar dataType="xsd:integer" dictRef="cc:atomicNumber">1</scalar></atom><atom id="a27" elementType="H" x3="4.755868" y3="-2.819741" z3="-0.350731"><scalar dataType="xsd:integer" dictRef="cc:serial">27</scalar><scalar dataType="xsd:integer" dictRef="g:atomicType">0</scalar><scalar dataType="xsd:integer" dictRef="cc:atomicNumber">1</scalar></atom><atom id="a28" elementType="H" x3="3.859345" y3="-1.915621" z3="-1.575141"><scalar dataType="xsd:integer" dictRef="cc:serial">28</scalar><scalar dataType="xsd:integer" dictRef="g:atomicType">0</scalar><scalar dataType="xsd:integer" dictRef="cc:atomicNumber">1</scalar></atom><atom id="a29" elementType="H" x3="5.32687" y3="-0.408841" z3="-0.305835"><scalar dataType="xsd:integer" dictRef="cc:serial">29</scalar><scalar dataType="xsd:integer" dictRef="g:atomicType">0</scalar><scalar dataType="xsd:integer" dictRef="cc:atomicNumber">1</scalar></atom><atom id="a30" elementType="H" x3="4.601368" y3="-0.904218" z3="1.223222"><scalar dataType="xsd:integer" dictRef="cc:serial">30</scalar><scalar dataType="xsd:integer" dictRef="g:atomicType">0</scalar><scalar dataType="xsd:integer" dictRef="cc:atomicNumber">1</scalar></atom><atom id="a31" elementType="H" x3="3.789531" y3="1.835523" z3="-1.295535"><scalar dataType="xsd:integer" dictRef="cc:serial">31</scalar><scalar dataType="xsd:integer" dictRef="g:atomicType">0</scalar><scalar dataType="xsd:integer" dictRef="cc:atomicNumber">1</scalar></atom><atom id="a32" elementType="H" x3="4.754765" y3="1.823287" z3="0.181708"><scalar dataType="xsd:integer" dictRef="cc:serial">32</scalar><scalar dataType="xsd:integer" dictRef="g:atomicType">0</scalar><scalar dataType="xsd:integer" dictRef="cc:atomicNumber">1</scalar></atom><atom id="a33" elementType="H" x3="3.074328" y3="3.636017" z3="0.27495"><scalar dataType="xsd:integer" dictRef="cc:serial">33</scalar><scalar dataType="xsd:integer" dictRef="g:atomicType">0</scalar><scalar dataType="xsd:integer" dictRef="cc:atomicNumber">1</scalar></atom><atom id="a34" elementType="H" x3="2.802164" y3="2.43989" z3="1.545654"><scalar dataType="xsd:integer" dictRef="cc:serial">34</scalar><scalar dataType="xsd:integer" dictRef="g:atomicType">0</scalar><scalar dataType="xsd:integer" dictRef="cc:atomicNumber">1</scalar></atom><atom id="a35" elementType="H" x3="1.295812" y3="2.691036" z3="-1.107625"><scalar dataType="xsd:integer" dictRef="cc:serial">35</scalar><scalar dataType="xsd:integer" dictRef="g:atomicType">0</scalar><scalar dataType="xsd:integer" dictRef="cc:atomicNumber">1</scalar></atom><atom id="a36" elementType="H" x3="0.673754" y3="2.952445" z3="0.53178"><scalar dataType="xsd:integer" dictRef="cc:serial">36</scalar><scalar dataType="xsd:integer" dictRef="g:atomicType">0</scalar><scalar dataType="xsd:integer" dictRef="cc:atomicNumber">1</scalar></atom></atomArray><formula formalCharge="0" concise="C 16 H 15 N 1 O 4"><atomArray elementType="C H N O" count="16.0 15.0 1.0 4.0"/></formula><bondArray><bond atomRefs2="a1 a2" id="a1_a2" order="D"/><bond atomRefs2="a2 a3" id="a2_a3" order="S"/><bond atomRefs2="a2 a4" id="a2_a4" order="S"/><bond atomRefs2="a3 a22" id="a3_a22" order="S"/><bond atomRefs2="a4 a5" id="a4_a5" order="D"/><bond atomRefs2="a4 a9" id="a4_a9" order="S"/><bond atomRefs2="a5 a6" id="a5_a6" order="S"/><bond atomRefs2="a5 a23" id="a5_a23" order="S"/><bond atomRefs2="a6 a7" id="a6_a7" order="D"/><bond atomRefs2="a6 a14" id="a6_a14" order="S"/><bond atomRefs2="a7 a8" id="a7_a8" order="S"/><bond atomRefs2="a7 a11" id="a7_a11" order="S"/><bond atomRefs2="a8 a9" id="a8_a9" order="S"/><bond atomRefs2="a9 a10" id="a9_a10" order="D"/><bond atomRefs2="a11 a12" id="a11_a12" order="D"/><bond atomRefs2="a11 a21" id="a11_a21" order="S"/><bond atomRefs2="a12 a13" id="a12_a13" order="S"/><bond atomRefs2="a12 a18" id="a12_a18" order="S"/><bond atomRefs2="a13 a14" id="a13_a14" order="D"/><bond atomRefs2="a13 a15" id="a13_a15" order="S"/><bond atomRefs2="a14 a24" id="a14_a24" order="S"/><bond atomRefs2="a15 a16" id="a15_a16" order="S"/><bond atomRefs2="a15 a25" id="a15_a25" order="S"/><bond atomRefs2="a15 a26" id="a15_a26" order="S"/><bond atomRefs2="a16 a17" id="a16_a17" order="S"/><bond atomRefs2="a16 a27" id="a16_a27" order="S"/><bond atomRefs2="a16 a28" id="a16_a28" order="S"/><bond atomRefs2="a17 a18" id="a17_a18" order="S"/><bond atomRefs2="a17 a29" id="a17_a29" order="S"/><bond atomRefs2="a17 a30" id="a17_a30" order="S"/><bond atomRefs2="a18 a19" id="a18_a19" order="S"/><bond atomRefs2="a19 a20" id="a19_a20" order="S"/><bond atomRefs2="a19 a31" id="a19_a31" order="S"/><bond atomRefs2="a19 a32" id="a19_a32" order="S"/><bond atomRefs2="a20 a21" id="a20_a21" order="S"/><bond atomRefs2="a20 a33" id="a20_a33" order="S"/><bond atomRefs2="a20 a34" id="a20_a34" order="S"/><bond atomRefs2="a21 a35" id="a21_a35" order="S"/><bond atomRefs2="a21 a36" id="a21_a36" order="S"/></bondArray><property dictRef="cml:molmass"><scalar dataType="xsd:double" units="unit:dalton" xmlns:unit="http://www.xml-cml.org/unit/si/">285.2946</scalar></property></molecule></module><module cmlx:lineCount="1" cmlx:templateRef="l202.rotconst"><array dataType="xsd:double" size="3" dictRef="cc:rotconst" cmlx:templateRef="rotconst">0.6977149 0.1795842 0.1476157</array></module><module cmlx:lineCount="13" cmlx:templateRef="l301.basis"><scalar dataType="xsd:string" dictRef="cc:basis">6-31+G(d,p)</scalar><scalar dataType="xsd:string" dictRef="cc:diffuse">(6D, 7F)</scalar><scalar dataType="xsd:integer" dictRef="g:buffer">131072</scalar><scalar dataType="xsd:string" dictRef="g:twoe">Two-electron</scalar><scalar dataType="xsd:double" dictRef="cc:nucrepener">1650.4716838755</scalar><table tableType="columnBased"><arrayList><array dataType="xsd:integer" dictRef="cc:adapted" size="1">474</array><array dataType="xsd:string" dictRef="cc:symm" size="1">A</array></arrayList></table><module cmlx:lineCount="7" cmlx:templateRef="symaddnuc"><scalar dataType="xsd:string" dictRef="g:raffenetti">Raffenetti</scalar><scalar dataType="xsd:integer" dictRef="g:raff">2</scalar><scalar dataType="xsd:integer" dictRef="cc:basiscount">474</scalar><scalar dataType="xsd:integer" dictRef="g:primbasis">777</scalar><scalar dataType="xsd:integer" dictRef="cc:cartesianbasis">474</scalar><scalar dataType="xsd:integer" dictRef="cc:alphae">75</scalar><scalar dataType="xsd:integer" dictRef="cc:betae">75</scalar></module><array dataType="xsd:string" size="7" dictRef="g:misc">IExCor= 402 DFT=T Ex+Corr=B3LYP ExCW=0 ScaHFX= 0.200000</array><module cmlx:lineCount="1" cmlx:templateRef="misc"/><array dataType="xsd:string" size="8" dictRef="g:misc">ScaDFX= 0.800000 0.720000 1.000000 0.810000 ScalE2= 1.000000 1.000000</array><module cmlx:lineCount="1" cmlx:templateRef="misc"/><array dataType="xsd:string" size="7" dictRef="g:misc">IRadAn= 0 IRanWt= -1 IRanGd= 0 ICorTp=0</array><module cmlx:lineCount="1" cmlx:templateRef="misc"/><scalar dataType="xsd:string" id="scraped"> NAtoms=   36 NActive=   36 NUniq=   36 SFac= 7.50D-01 NAtFMM=   80 NAOKFM=F Big=F
</scalar></module><module cmlx:lineCount="5" cmlx:templateRef="l302.basis"><list cmlx:templateRef="basis"><array dataType="xsd:string" size="11" dictRef="g:basis">NPDir=0 NMtPBC= 1 NCelOv= 1 NCel= 1 NClECP= 1 NCelD= 1</array><array dataType="xsd:string" size="8" dictRef="g:basis">NCelK= 1 NCelE2= 1 NClLst= 1 CellRange= 0.0.</array><array dataType="xsd:string" size="5" dictRef="g:basis">One-electron integrals computed using PRISM.</array><array dataType="xsd:string" size="6" dictRef="g:basis">NBasis= 474 RedAO= T NBF= 474</array><array dataType="xsd:string" size="5" dictRef="g:basis">NBsUse= 469 1.00D-06 NBFU= 469</array></list></module><module cmlx:lineCount="4" cmlx:templateRef="l302a.basis"><list cmlx:templateRef="basis"><array dataType="xsd:string" size="5" dictRef="g:basis">Precomputing XC quadrature grid using</array><array dataType="xsd:string" size="10" dictRef="g:basis">IXCGrd= 2 IRadAn= 0 IRanWt= -1 IRanGd= 0 AccXCQ= 1.00D-10.</array><array dataType="xsd:string" size="8" dictRef="g:basis">NRdTot= 2342 NPtTot= 298786 NUsed= 315661 NTot= 315693</array><array dataType="xsd:string" size="9" dictRef="g:basis">NSgBfM= 470 470 470 470 470 NAtAll= 36 36.</array></list></module><module cmlx:lineCount="1" cmlx:templateRef="l303.basis"><list cmlx:templateRef="l303"><scalar dataType="xsd:integer" dictRef="g:dipdrv">1</scalar></list></module> Harris functional with IExCor=  402 diagonalized for initial guess.
 ExpMin= 4.38D-02 ExpMax= 5.48D+03 ExpMxC= 8.25D+02 IAcc=2 IRadAn=         0 AccDes= 0.00D+00
 HarFok:  IExCor=  402 AccDes= 0.00D+00 IRadAn=         0 IDoV= 1
 ScaDFX=  1.000000  1.000000  1.000000  1.000000
 FoFCou: FMM=F IPFlag=           0 FMFlag=      100000 FMFlg1=           0
         NFxFlg=           0 DoJE=T BraDBF=F KetDBF=T FulRan=T
         Omega=  0.000000  0.000000  1.000000  0.000000  0.000000 ICntrl=     500 IOpCl=  0
         NMat0=    1 NMatS0=    1 NMatT0=    0 NMatD0=    1 NMtDS0=    0 NMtDT0=    0
         I1Cent=           4 NGrid=           0.
 Petite list used in FoFCou.
 Harris En= -974.556108054762    
 Initial guess orbital symmetries:
       Occupied  (A) (A) (A) (A) (A) (A) (A) (A) (A) (A) (A) (A)
                 (A) (A) (A) (A) (A) (A) (A) (A) (A) (A) (A) (A)
                 (A) (A) (A) (A) (A) (A) (A) (A) (A) (A) (A) (A)
                 (A) (A) (A) (A) (A) (A) (A) (A) (A) (A) (A) (A)
                 (A) (A) (A) (A) (A) (A) (A) (A) (A) (A) (A) (A)
                 (A) (A) (A) (A) (A) (A) (A) (A) (A) (A) (A) (A)
                 (A) (A) (A)
       Virtual   (A) (A) (A) (A) (A) (A) (A) (A) (A) (A) (A) (A)
                 (A) (A) (A) (A) (A) (A) (A) (A) (A) (A) (A) (A)
                 (A) (A) (A) (A) (A) (A) (A) (A) (A) (A) (A) (A)
                 (A) (A) (A) (A) (A) (A) (A) (A) (A) (A) (A) (A)
                 (A) (A) (A) (A) (A) (A) (A) (A) (A) (A) (A) (A)
                 (A) (A) (A) (A) (A) (A) (A) (A) (A) (A) (A) (A)
                 (A) (A) (A) (A) (A) (A) (A) (A) (A) (A) (A) (A)
                 (A) (A) (A) (A) (A) (A) (A) (A) (A) (A) (A) (A)
                 (A) (A) (A) (A) (A) (A) (A) (A) (A) (A) (A) (A)
                 (A) (A) (A) (A) (A) (A) (A) (A) (A) (A) (A) (A)
                 (A) (A) (A) (A) (A) (A) (A) (A) (A) (A) (A) (A)
                 (A) (A) (A) (A) (A) (A) (A) (A) (A) (A) (A) (A)
                 (A) (A) (A) (A) (A) (A) (A) (A) (A) (A) (A) (A)
                 (A) (A) (A) (A) (A) (A) (A) (A) (A) (A) (A) (A)
                 (A) (A) (A) (A) (A) (A) (A) (A) (A) (A) (A) (A)
                 (A) (A) (A) (A) (A) (A) (A) (A) (A) (A) (A) (A)
                 (A) (A) (A) (A) (A) (A) (A) (A) (A) (A) (A) (A)
                 (A) (A) (A) (A) (A) (A) (A) (A) (A) (A) (A) (A)
                 (A) (A) (A) (A) (A) (A) (A) (A) (A) (A) (A) (A)
                 (A) (A) (A) (A) (A) (A) (A) (A) (A) (A) (A) (A)
                 (A) (A) (A) (A) (A) (A) (A) (A) (A) (A) (A) (A)
                 (A) (A) (A) (A) (A) (A) (A) (A) (A) (A) (A) (A)
                 (A) (A) (A) (A) (A) (A) (A) (A) (A) (A) (A) (A)
                 (A) (A) (A) (A) (A) (A) (A) (A) (A) (A) (A) (A)
                 (A) (A) (A) (A) (A) (A) (A) (A) (A) (A) (A) (A)
                 (A) (A) (A) (A) (A) (A) (A) (A) (A) (A) (A) (A)
                 (A) (A) (A) (A) (A) (A) (A) (A) (A) (A) (A) (A)
                 (A) (A) (A) (A) (A) (A) (A) (A) (A) (A) (A) (A)
                 (A) (A) (A) (A) (A) (A) (A) (A) (A) (A) (A) (A)
                 (A) (A) (A) (A) (A) (A) (A) (A) (A) (A) (A) (A)
                 (A) (A) (A) (A) (A) (A) (A) (A) (A) (A) (A) (A)
                 (A) (A) (A) (A) (A) (A) (A) (A) (A) (A) (A) (A)
                 (A) (A) (A) (A) (A) (A) (A) (A) (A) (A)
 The electronic state of the initial guess is 1-A.
<module cmlx:lineCount="265" cmlx:templateRef="l502"> Closed shell SCF:
 Requested convergence on RMS density matrix=1.00D-08 within 128 cycles.
 Requested convergence on MAX density matrix=1.00D-06.
 Requested convergence on             energy=1.00D-06.
 No special actions if energy rises.
 Using DIIS extrapolation, IDIIS=  1040.
 Integral symmetry usage will be decided dynamically.
       315324 words used for storage of precomputed grid.
 IEnd=     1013882 IEndB=     1013882 NGot=   536870912 MDV=   536098821
 LenX=   536098821 LenY=   535873671
 Fock matrices will be formed incrementally for  20 cycles.

<module cmlx:lineCount="249" cmlx:templateRef="l502.cycle"><list cmlx:templateRef="cycle"><list><scalar dataType="xsd:integer" dictRef="cc:cycle">1</scalar><scalar dataType="xsd:integer" dictRef="g:pass">1</scalar><scalar dataType="xsd:integer" dictRef="g:idiag">1</scalar></list></list> FoFCou: FMM=F IPFlag=           0 FMFlag=      100000 FMFlg1=           0
         NFxFlg=           0 DoJE=F BraDBF=F KetDBF=F FulRan=T
         Omega=  0.000000  0.000000  1.000000  0.000000  0.000000 ICntrl=       0 IOpCl=  0
         NMat0=    1 NMatS0=    1 NMatT0=    0 NMatD0=    1 NMtDS0=    0 NMtDT0=    0
         I1Cent=           0 NGrid=           0.
 Symmetry not used in FoFCou.
<module cmlx:lineCount="1" cmlx:templateRef="l502.e"><list cmlx:templateRef="l502.e"><scalar dataType="xsd:double" dictRef="g:l502.e">-973.930882103653</scalar></list></module>
 Cycle   2  Pass 1  IDiag  1:
<module cmlx:lineCount="1" cmlx:templateRef="l502.ediff"><list cmlx:templateRef="l502.ediff"><list><scalar dataType="xsd:double" dictRef="g:l502.e">-974.033098580022</scalar><scalar dataType="xsd:double" dictRef="g:l502.deltae">-0.102216476369</scalar></list></list></module>
 Cycle   3  Pass 1  IDiag  1:
<module cmlx:lineCount="1" cmlx:templateRef="l502.ediff"><list cmlx:templateRef="l502.ediff"><list><scalar dataType="xsd:double" dictRef="g:l502.e">-974.339320921216</scalar><scalar dataType="xsd:double" dictRef="g:l502.deltae">-0.306222341194</scalar></list></list></module>
 Cycle   4  Pass 1  IDiag  1:
<module cmlx:lineCount="1" cmlx:templateRef="l502.ediff"><list cmlx:templateRef="l502.ediff"><list><scalar dataType="xsd:double" dictRef="g:l502.e">-974.439174019206</scalar><scalar dataType="xsd:double" dictRef="g:l502.deltae">-0.09985309799</scalar></list></list></module>
 Cycle   5  Pass 1  IDiag  1:
<module cmlx:lineCount="1" cmlx:templateRef="l502.ediff"><list cmlx:templateRef="l502.ediff"><list><scalar dataType="xsd:double" dictRef="g:l502.e">-974.455049370676</scalar><scalar dataType="xsd:double" dictRef="g:l502.deltae">-0.01587535147</scalar></list></list></module>
 Cycle   6  Pass 1  IDiag  1:
<module cmlx:lineCount="1" cmlx:templateRef="l502.ediff"><list cmlx:templateRef="l502.ediff"><list><scalar dataType="xsd:double" dictRef="g:l502.e">-974.456503916862</scalar><scalar dataType="xsd:double" dictRef="g:l502.deltae">-0.001454546186</scalar></list></list></module>
 Cycle   7  Pass 1  IDiag  1:
                    CP:  8.44D-01
<module cmlx:lineCount="1" cmlx:templateRef="l502.ediff"><list cmlx:templateRef="l502.ediff"><list><scalar dataType="xsd:double" dictRef="g:l502.e">-974.456681449376</scalar><scalar dataType="xsd:double" dictRef="g:l502.deltae">-1.77532514E-4</scalar></list></list></module>
 Cycle   8  Pass 1  IDiag  1:
                    CP:  7.45D-01  6.07D-01
<module cmlx:lineCount="1" cmlx:templateRef="l502.ediff"><list cmlx:templateRef="l502.ediff"><list><scalar dataType="xsd:double" dictRef="g:l502.e">-974.456704279455</scalar><scalar dataType="xsd:double" dictRef="g:l502.deltae">-2.283008E-5</scalar></list></list></module>
 Cycle   9  Pass 1  IDiag  1:
                    CP:  7.51D-01  5.76D-01  9.69D-01
<module cmlx:lineCount="1" cmlx:templateRef="l502.ediff"><list cmlx:templateRef="l502.ediff"><list><scalar dataType="xsd:double" dictRef="g:l502.e">-974.456705701171</scalar><scalar dataType="xsd:double" dictRef="g:l502.deltae">-1.421716E-6</scalar></list></list></module>
 Cycle  10  Pass 1  IDiag  1:
                    CP:  7.53D-01  5.79D-01  9.47D-01  7.68D-01
<module cmlx:lineCount="1" cmlx:templateRef="l502.ediff"><list cmlx:templateRef="l502.ediff"><list><scalar dataType="xsd:double" dictRef="g:l502.e">-974.456705906619</scalar><scalar dataType="xsd:double" dictRef="g:l502.deltae">-2.05448E-7</scalar></list></list></module>
 Cycle  11  Pass 1  IDiag  1:
                    CP:  7.55D-01  5.83D-01  9.58D-01  7.76D-01  7.09D-01
<module cmlx:lineCount="1" cmlx:templateRef="l502.ediff"><list cmlx:templateRef="l502.ediff"><list><scalar dataType="xsd:double" dictRef="g:l502.e">-974.45670594</scalar><scalar dataType="xsd:double" dictRef="g:l502.deltae">-3.3381E-8</scalar></list></list></module>
 Cycle  12  Pass 1  IDiag  1:
                    CP:  7.55D-01  5.83D-01  9.61D-01  8.01D-01  7.49D-01
                    CP:  6.97D-01
<module cmlx:lineCount="1" cmlx:templateRef="l502.ediff"><list cmlx:templateRef="l502.ediff"><list><scalar dataType="xsd:double" dictRef="g:l502.e">-974.456705942621</scalar><scalar dataType="xsd:double" dictRef="g:l502.deltae">-2.621E-9</scalar></list></list></module>
 Cycle  13  Pass 1  IDiag  1:
                    CP:  7.54D-01  5.82D-01  9.65D-01  8.00D-01  7.68D-01
                    CP:  7.76D-01  5.84D-01
<module cmlx:lineCount="1" cmlx:templateRef="l502.ediff"><list cmlx:templateRef="l502.ediff"><list><scalar dataType="xsd:double" dictRef="g:l502.e">-974.456705943344</scalar><scalar dataType="xsd:double" dictRef="g:l502.deltae">-7.23E-10</scalar></list></list></module>
 Cycle  14  Pass 1  IDiag  1:
                    CP:  7.54D-01  5.82D-01  9.65D-01  8.02D-01  7.68D-01
                    CP:  7.85D-01  6.33D-01  8.51D-01
<module cmlx:lineCount="1" cmlx:templateRef="l502.ediff"><list cmlx:templateRef="l502.ediff"><list><scalar dataType="xsd:double" dictRef="g:l502.e">-974.456705943326</scalar><scalar dataType="xsd:double" dictRef="g:l502.deltae">1.8E-11</scalar></list></list></module>
 Cycle  15  Pass 1  IDiag  1:
                    CP:  7.54D-01  5.82D-01  9.65D-01  8.02D-01  7.74D-01
                    CP:  7.86D-01  6.35D-01  9.00D-01  7.27D-01
<module cmlx:lineCount="1" cmlx:templateRef="l502.ediff"><list cmlx:templateRef="l502.ediff"><list><scalar dataType="xsd:double" dictRef="g:l502.e">-974.456705943313</scalar><scalar dataType="xsd:double" dictRef="g:l502.deltae">1.2E-11</scalar></list></list></module>
 Cycle  16  Pass 1  IDiag  1:
                    CP:  7.54D-01  5.82D-01  9.65D-01  8.02D-01  7.73D-01
                    CP:  7.88D-01  6.34D-01  9.14D-01  7.27D-01  7.14D-01
<module cmlx:lineCount="1" cmlx:templateRef="l502.ediff"><list cmlx:templateRef="l502.ediff"><list><scalar dataType="xsd:double" dictRef="g:l502.e">-974.456705943309</scalar><scalar dataType="xsd:double" dictRef="g:l502.deltae">4.0E-12</scalar></list></list></module> RMSDP=7.72D-09 MaxDP=6.43D-07 DE= 4.09D-12 OVMax= 1.13D-07
</module><module cmlx:lineCount="3" cmlx:templateRef="l502.footer"> SCF Done:  E(RB3LYP) =  -974.456705943     A.U. after   16 cycles
             Convg  =    0.7722D-08             -V/T =  2.0093
 KE= 9.654649988742D+02 PE=-5.568182139529D+03 EE= 1.977788750836D+03
</module></module> Copying SCF densities to generalized density rwf, IOpCl= 0 IROHF=0.

[...]
 259         V                 1.145547          2.658024
 260         V                 1.147773          2.521048
 261         V                 1.157796          2.460872
 262         V                 1.162808          2.380915
 263         V                 1.183430          2.446243
 264         V                 1.199360          2.634017
 265         V                 1.202133          2.735263
 266         V                 1.206808          2.863974
 267         V                 1.217135          2.512870
 268         V                 1.223851          2.673966
 269         V                 1.226831          2.948724
 270         V                 1.242312          2.540348
 271         V                 1.252397          2.807647
 272         V                 1.265209          2.603808
 273         V                 1.285031          2.978986
 274         V                 1.288432          2.564583
 275         V                 1.291690          2.826579
 276         V                 1.303064          2.680785
 277         V                 1.305363          3.185040
 278         V                 1.312084          2.764839
 279         V                 1.320470          2.751785
 280         V                 1.336886          2.767591
 281         V                 1.348662          2.858429
 282         V                 1.351672          3.100693
 283         V                 1.354632          3.047603
 284         V                 1.358422          2.918165
 285         V                 1.381531          2.829111
 286         V                 1.383252          2.709157
 287         V                 1.394232          2.801842
 288         V                 1.399522          2.808903
 289         V                 1.408171          2.797773
 290         V                 1.421179          2.751902
 291         V                 1.430697          2.638188
 292         V                 1.453708          2.759406
 293         V                 1.454694          2.882417
 294         V                 1.484132          3.144357
 295         V                 1.497191          2.793883
 296         V                 1.507574          2.719432
 297         V                 1.537078          2.833597
 298         V                 1.548922          2.757118
 299         V                 1.567445          2.849113
 300         V                 1.578776          2.697338
 301         V                 1.589824          2.700527
 302         V                 1.610848          2.834002
 303         V                 1.619136          2.803916
 304         V                 1.628255          2.905924
 305         V                 1.652798          2.833271
 306         V                 1.653775          2.914597
 307         V                 1.679437          2.888077
 308         V                 1.690576          2.931590
 309         V                 1.698929          2.935973
 310         V                 1.706911          2.938744
 311         V                 1.724642          2.969798
 312         V                 1.730968          2.884806
 313         V                 1.736791          3.015137
 314         V                 1.743548          3.088356
 315         V                 1.765395          3.112270
 316         V                 1.767286          3.137260
 317         V                 1.775627          3.034145
 318         V                 1.792619          2.983398
 319         V                 1.796598          3.156791
 320         V                 1.809381          3.129159
 321         V                 1.812636          3.007551
 322         V                 1.822846          3.234552
 323         V                 1.827257          3.219382
 324         V                 1.839422          3.142872
 325         V                 1.849598          3.209313
 326         V                 1.858855          3.348123
 327         V                 1.874311          3.268993
 328         V                 1.883929          3.194652
 329         V                 1.888651          3.142534
 330         V                 1.894255          3.363941
 331         V                 1.899300          3.195096
 332         V                 1.909696          3.351292
 333         V                 1.919436          3.270873
 334         V                 1.924325          3.382570
 335         V                 1.934438          3.390835
 336         V                 1.943110          3.374456
 337         V                 1.962185          3.228873
 338         V                 1.974937          3.449616
 339         V                 1.976812          3.432009
 340         V                 1.994064          3.386770
 341         V                 1.998933          3.300528
 342         V                 2.014910          3.281482
 343         V                 2.029514          3.405613
 344         V                 2.041216          3.421578
 345         V                 2.050352          3.369574
 346         V                 2.060382          3.411522
 347         V                 2.068621          3.318527
 348         V                 2.089253          3.396698
 349         V                 2.092788          3.330942
 350         V                 2.096582          3.462327
 351         V                 2.102789          3.448446
 352         V                 2.115810          3.480594
 353         V                 2.123355          3.327199
 354         V                 2.135218          3.436487
 355         V                 2.149214          3.439132
 356         V                 2.154497          3.595673
 357         V                 2.170640          3.421215
 358         V                 2.184052          3.517060
 359         V                 2.202813          3.475816
 360         V                 2.227142          3.508718
 361         V                 2.242824          3.438304
 362         V                 2.248069          3.354160
 363         V                 2.257124          3.597667
 364         V                 2.268509          3.460210
 365         V                 2.279089          3.583994
 366         V                 2.286015          3.494497
 367         V                 2.298308          3.556295
 368         V                 2.308792          3.534301
 369         V                 2.336789          3.537403
 370         V                 2.339733          3.527838
 371         V                 2.341485          3.529069
 372         V                 2.350577          3.547038
 373         V                 2.380626          3.599524
 374         V                 2.387012          3.745766
 375         V                 2.401786          3.795685
 376         V                 2.417469          3.624501
 377         V                 2.425668          3.658806
 378         V                 2.439509          3.762757
 379         V                 2.447527          3.641883
 380         V                 2.459342          3.746000
 381         V                 2.477263          3.638266
 382         V                 2.482675          3.778862
 383         V                 2.490385          3.655186
 384         V                 2.495753          3.867923
 385         V                 2.510513          3.775278
 386         V                 2.520756          3.732710
 387         V                 2.524863          3.749153
 388         V                 2.534649          3.676040
 389         V                 2.552536          3.703394
 390         V                 2.567999          3.775417
 391         V                 2.573811          3.787981
 392         V                 2.580933          3.816725
 393         V                 2.603937          3.914482
 394         V                 2.621903          3.883347
 395         V                 2.637971          3.936526
 396         V                 2.650958          3.980910
 397         V                 2.656944          3.961126
 398         V                 2.665483          4.027345
 399         V                 2.670010          3.837625
 400         V                 2.683963          3.997172
 401         V                 2.707083          3.976342
 402         V                 2.713180          4.015379
 403         V                 2.723466          4.030024
 404         V                 2.735905          4.053097
 405         V                 2.744181          4.127880
 406         V                 2.757193          4.066022
 407         V                 2.759836          4.049824
 408         V                 2.776736          4.068577
 409         V                 2.787455          4.011762
 410         V                 2.802769          4.113714
 411         V                 2.816528          4.164244
 412         V                 2.832785          4.211097
 413         V                 2.835069          4.251410
 414         V                 2.844229          4.265097
 415         V                 2.854320          4.162434
 416         V                 2.861700          4.329403
 417         V                 2.882677          4.084848
 418         V                 2.888625          4.301777
 419         V                 2.898734          4.096324
 420         V                 2.928613          4.499045
 421         V                 2.958477          4.241991
 422         V                 2.982163          4.451236
 423         V                 3.015111          4.714446
 424         V                 3.039269          4.655017
 425         V                 3.081180          4.734795
 426         V                 3.103748          4.771610
 427         V                 3.120207          4.796859
 428         V                 3.145457          4.975497
 429         V                 3.175840          4.958469
 430         V                 3.225617          5.141514
 431         V                 3.248964          5.088479
 432         V                 3.264771          5.193198
 433         V                 3.272184          5.172861
 434         V                 3.300354          4.955716
 435         V                 3.307567          4.999549
 436         V                 3.321132          4.982919
 437         V                 3.333831          4.989193
 438         V                 3.346997          5.035615
 439         V                 3.350130          5.023499
 440         V                 3.368220          5.125694
 441         V                 3.458998          5.057515
 442         V                 3.474142          5.130394
 443         V                 3.481754          5.133414
 444         V                 3.508264          5.167179
 445         V                 3.515100          5.751373
 446         V                 3.537918          5.304576
 447         V                 3.554256          5.175076
 448         V                 3.568051          5.353965
 449         V                 3.678751          5.523431
 450         V                 4.236356         10.869936
 451         V                 4.262992         10.560567
 452         V                 4.282364         10.735701
 453         V                 4.332377         10.610278
 454         V                 4.353237         10.526737
 455         V                 4.387043         10.587690
 456         V                 4.399062         10.481712
 457         V                 4.430199         11.113377
 458         V                 4.443885         10.419577
 459         V                 4.464682         10.776648
 460         V                 4.485155         10.519569
 461         V                 4.509044         11.395362
 462         V                 4.546497         10.704386
 463         V                 4.594803         10.934615
 464         V                 4.646160         11.094409
 465         V                 4.659652         10.764326
 466         V                 4.665079         10.669564
 467         V                 4.696592         10.531540
 468         V                 4.741945         10.528909
 469         V                 4.908005         10.665273
 470         V                 5.015079         13.002852
 Total kinetic energy from orbitals= 9.654343918052D+02
<module cmlx:lineCount="2" cmlx:templateRef="l601.nonmr"> Leave Link  601 at Tue Jan 10 06:54:53 2012, MaxMem=  536870912 cpu:       6.9
</module><scalar dataType="xsd:string" dictRef="cc:hostname">GINC-CL224</scalar><scalar dataType="xsd:string" dictRef="g:operation">FOpt</scalar><scalar dataType="xsd:string" dictRef="cc:method">RB3LYP</scalar><scalar dataType="xsd:string" dictRef="cc:basis">6-31+G(d,p)</scalar><formula concise="C 16 H 15 N 1 O 4"><atomArray elementType="C H N O" count="16.0 15.0 1.0 4.0"/></formula><scalar dataType="xsd:string" dictRef="cc:jobname">JCOLE</scalar><scalar dataType="xsd:date" dictRef="cc:date">2012-01-10T00:00:00Z</scalar><scalar dataType="xsd:string" dictRef="g:zmat">0</scalar><scalar dataType="xsd:string" dictRef="g:keyword">#p</scalar><scalar dataType="xsd:string" dictRef="g:keyword">b3lyp/6-31+g(d,p)</scalar><scalar dataType="xsd:string" dictRef="g:keyword">opt</scalar><scalar dataType="xsd:string" dictRef="g:keyword">pop=full</scalar><scalar dataType="xsd:string" dictRef="cc:version">AM64L-G09RevA.02</scalar><scalar dataType="xsd:string" dictRef="cc:electronicstate">1-A</scalar><scalar dataType="xsd:double" dictRef="cc:hfenergy">-974.4697029</scalar><scalar dataType="xsd:double" dictRef="cc:rmsd">2.432E-9</scalar><scalar dataType="xsd:double" dictRef="cc:rmsf">1.811E-5</scalar><array dataType="xsd:double" size="3" dictRef="cc:dipole">4.4640162 2.231314 -0.2362848</array><scalar dataType="xsd:string" dictRef="x:Quadrupole">-13.75949,6.9873724,6.7721176,-12.1522999,-0.7559087,-3.5160833</scalar><scalar dataType="xsd:string" dictRef="cc:pointgroup">C01 [X(C16H15N1O4)]</scalar><module cmlx:lineCount="27" cmlx:templateRef="l9999.archive"><molecule id="mol9999"><atomArray><atom id="a1" elementType="O" x3="-4.919044886" y3="1.2338387726" z3="-0.7232325334"/><atom id="a2" elementType="C" x3="-3.8783935068" y3="1.3792402965" z3="-0.1346077697"/><atom id="a3" elementType="O" x3="-3.3231126632" y3="0.3270694926" z3="0.5450283878"/><atom id="a4" elementType="C" x3="-3.0682523556" y3="2.6383981273" z3="-0.1327241917"/><atom id="a5" elementType="C" x3="-1.7324201067" y3="2.6256066974" z3="-0.4398640482"/><atom id="a6" elementType="C" x3="-0.9774002623" y3="3.822354386" z3="-0.5758965679"/><atom id="a7" elementType="C" x3="-1.6466106064" y3="5.0495549271" z3="-0.3822176931"/><atom id="a8" elementType="O" x3="-2.9732670848" y3="5.0608349092" z3="-0.0519049601"/><atom id="a9" elementType="C" x3="-3.7566211729" y3="3.9083994914" z3="0.1069946707"/><atom id="a10" elementType="O" x3="-4.9012640833" y3="4.0678009173" z3="0.4560940972"/><atom id="a11" elementType="C" x3="-1.0178746327" y3="6.283749677" z3="-0.5204280507"/><atom id="a12" elementType="C" x3="0.3612881406" y3="6.3009897104" z3="-0.8621024832"/><atom id="a13" elementType="C" x3="1.0710758032" y3="5.0665389357" z3="-1.0418750397"/><atom id="a14" elementType="C" x3="0.3920698477" y3="3.8726020266" z3="-0.9133888734"/><atom id="a15" elementType="C" x3="2.5425233421" y3="5.1063688625" z3="-1.3840005583"/><atom id="a16" elementType="C" x3="2.842825117" y3="6.3330113652" z3="-2.2490953062"/><atom id="a17" elementType="C" x3="2.3940276263" y3="7.593964649" z3="-1.5179657153"/><atom id="a18" elementType="N" x3="1.0197397274" y3="7.4992864003" z3="-1.0187993276"/><atom id="a19" elementType="C" x3="0.3678077322" y3="8.7874222295" z3="-0.7719671276"/><atom id="a20" elementType="C" x3="-0.8131124514" y3="8.6633842065" z3="0.1840571954"/><atom id="a21" elementType="C" x3="-1.772375352" y3="7.5741451174" z3="-0.3011137135"/><atom id="a22" elementType="H" x3="-2.5942977484" y3="0.6371949596" z3="1.1018783206"/><atom id="a23" elementType="H" x3="-1.2301601371" y3="1.6772448117" z3="-0.6242817488"/><atom id="a24" elementType="H" x3="0.9262075213" y3="2.9383597907" z3="-1.0725427626"/><atom id="a25" elementType="H" x3="3.1449777562" y3="5.1599046756" z3="-0.4648817599"/><atom id="a26" elementType="H" x3="2.8330471667" y3="4.183001774" z3="-1.8958410097"/><atom id="a27" elementType="H" x3="3.9119252603" y3="6.4109887655" z3="-2.4725156261"/><atom id="a28" elementType="H" x3="2.3115522383" y3="6.2494632701" z3="-3.2049896472"/><atom id="a29" elementType="H" x3="2.4444476565" y3="8.4571608541" z3="-2.1937132846"/><atom id="a30" elementType="H" x3="3.0751586663" y3="7.806403962" z3="-0.6781130664"/><atom id="a31" elementType="H" x3="0.0375636853" y3="9.2229157367" z3="-1.7293244941"/><atom id="a32" elementType="H" x3="1.1221942323" y3="9.466639305" z3="-0.3559332586"/><atom id="a33" elementType="H" x3="-1.3218900689" y3="9.6303624204" z3="0.2528814234"/><atom id="a34" elementType="H" x3="-0.44748033" y3="8.4140897219" z3="1.1877574275"/><atom id="a35" elementType="H" x3="-2.2547230494" y3="7.8936471216" z3="-1.2362884127"/><atom id="a36" elementType="H" x3="-2.5802310219" y3="7.4140616337" z3="0.4172175076"/></atomArray><bondArray><bond atomRefs2="a1 a2" id="a1_a2" order="D"/><bond atomRefs2="a2 a3" id="a2_a3" order="S"/><bond atomRefs2="a2 a4" id="a2_a4" order="S"/><bond atomRefs2="a3 a22" id="a3_a22" order="S"/><bond atomRefs2="a4 a5" id="a4_a5" order="D"/><bond atomRefs2="a4 a9" id="a4_a9" order="S"/><bond atomRefs2="a5 a6" id="a5_a6" order="S"/><bond atomRefs2="a5 a23" id="a5_a23" order="S"/><bond atomRefs2="a6 a7" id="a6_a7" order="D"/><bond atomRefs2="a6 a14" id="a6_a14" order="S"/><bond atomRefs2="a7 a8" id="a7_a8" order="S"/><bond atomRefs2="a7 a11" id="a7_a11" order="S"/><bond atomRefs2="a8 a9" id="a8_a9" order="S"/><bond atomRefs2="a9 a10" id="a9_a10" order="D"/><bond atomRefs2="a11 a12" id="a11_a12" order="D"/><bond atomRefs2="a11 a21" id="a11_a21" order="S"/><bond atomRefs2="a12 a13" id="a12_a13" order="S"/><bond atomRefs2="a12 a18" id="a12_a18" order="S"/><bond atomRefs2="a13 a14" id="a13_a14" order="D"/><bond atomRefs2="a13 a15" id="a13_a15" order="S"/><bond atomRefs2="a14 a24" id="a14_a24" order="S"/><bond atomRefs2="a15 a16" id="a15_a16" order="S"/><bond atomRefs2="a15 a25" id="a15_a25" order="S"/><bond atomRefs2="a15 a26" id="a15_a26" order="S"/><bond atomRefs2="a16 a17" id="a16_a17" order="S"/><bond atomRefs2="a16 a27" id="a16_a27" order="S"/><bond atomRefs2="a16 a28" id="a16_a28" order="S"/><bond atomRefs2="a17 a18" id="a17_a18" order="S"/><bond atomRefs2="a17 a29" id="a17_a29" order="S"/><bond atomRefs2="a17 a30" id="a17_a30" order="S"/><bond atomRefs2="a18 a19" id="a18_a19" order="S"/><bond atomRefs2="a19 a20" id="a19_a20" order="S"/><bond atomRefs2="a19 a31" id="a19_a31" order="S"/><bond atomRefs2="a19 a32" id="a19_a32" order="S"/><bond atomRefs2="a20 a21" id="a20_a21" order="S"/><bond atomRefs2="a20 a33" id="a20_a33" order="S"/><bond atomRefs2="a20 a34" id="a20_a34" order="S"/><bond atomRefs2="a21 a35" id="a21_a35" order="S"/><bond atomRefs2="a21 a36" id="a21_a36" order="S"/></bondArray><property dictRef="cml:molmass"><scalar dataType="xsd:double" units="unit:dalton" xmlns:unit="http://www.xml-cml.org/unit/si/">285.2946</scalar></property></molecule></module>

 GOD GAVE US TWO ENDS... ONE TO SIT ON...    
 AND THE OTHER TO THINK WITH...              
 YOUR SUCCESS DEPENDS UPON WHICH END YOU     
 USE THE MOST...                             
                                             
 IT'S A CASE OF HEADS YOU WIN TAILS YOU LOSE.
          SOURCE UNKNOWN(IT'S JUST AS WELL.) 
<module cmlx:lineCount="3" cmlx:templateRef="jobcpu"><scalar dictRef="cc:jobtime" dataType="xsd:string">PT11521.200S</scalar><scalar dataType="xsd:date" dictRef="cc:jobdatetime.end">2012-01-10T06:55:00Z</scalar><scalar dataType="xsd:string" dictRef="cc:program">Gaussian 09</scalar></module></module></module>
