 Entering Gaussian System, Link 0=g09
 Initial command:
 /usr/local/gaussian/g09/l1.exe /globalscratch/jcole/Gau-10657.inp -scrdir=/globalscratch/jcole/
 Entering Link 1 = /usr/local/gaussian/g09/l1.exe PID=     10660.
  
 Copyright (c) 1988,1990,1992,1993,1995,1998,2003,2009, Gaussian, Inc.
                  All Rights Reserved.
  
 This is part of the Gaussian(R) 09 program.  It is based on
 the Gaussian(R) 03 system (copyright 2003, Gaussian, Inc.),
 the Gaussian(R) 98 system (copyright 1998, Gaussian, Inc.),
 the Gaussian(R) 94 system (copyright 1995, Gaussian, Inc.),
 the Gaussian 92(TM) system (copyright 1992, Gaussian, Inc.),
 the Gaussian 90(TM) system (copyright 1990, Gaussian, Inc.),
 the Gaussian 88(TM) system (copyright 1988, Gaussian, Inc.),
 the Gaussian 86(TM) system (copyright 1986, Carnegie Mellon
 University), and the Gaussian 82(TM) system (copyright 1983,
 Carnegie Mellon University). Gaussian is a federally registered
 trademark of Gaussian, Inc.
  
 This software contains proprietary and confidential information,
 including trade secrets, belonging to Gaussian, Inc.
  
 This software is provided under written license and may be
 used, copied, transmitted, or stored only in accord with that
 written license.
  
 The following legend is applicable only to US Government
 contracts under FAR:
  
                    RESTRICTED RIGHTS LEGEND
  
 Use, reproduction and disclosure by the US Government is
 subject to restrictions as set forth in subparagraphs (a)
 and (c) of the Commercial Computer Software - Restricted
 Rights clause in FAR 52.227-19.
  
 Gaussian, Inc.
 340 Quinnipiac St., Bldg. 40, Wallingford CT 06492
  
  
 ---------------------------------------------------------------
 Warning -- This program may not be used in any manner that
 competes with the business of Gaussian, Inc. or will provide
 assistance to any competitor of Gaussian, Inc.  The licensee
 of this program is prohibited from giving any competitor of
 Gaussian, Inc. access to this program.  By using this program,
 the user acknowledges that Gaussian, Inc. is engaged in the
 business of creating and licensing software in the field of
 computational chemistry and represents and warrants to the
 licensee that it is not a competitor of Gaussian, Inc. and that
 it will not use this program in any manner prohibited above.
 ---------------------------------------------------------------
  

 Cite this work as:
 Gaussian 09, Revision A.02,
 M. J. Frisch, G. W. Trucks, H. B. Schlegel, G. E. Scuseria, 
 M. A. Robb, J. R. Cheeseman, G. Scalmani, V. Barone, B. Mennucci, 
 G. A. Petersson, H. Nakatsuji, M. Caricato, X. Li, H. P. Hratchian, 
 A. F. Izmaylov, J. Bloino, G. Zheng, J. L. Sonnenberg, M. Hada, 
 M. Ehara, K. Toyota, R. Fukuda, J. Hasegawa, M. Ishida, T. Nakajima, 
 Y. Honda, O. Kitao, H. Nakai, T. Vreven, J. A. Montgomery, Jr., 
 J. E. Peralta, F. Ogliaro, M. Bearpark, J. J. Heyd, E. Brothers, 
 K. N. Kudin, V. N. Staroverov, R. Kobayashi, J. Normand, 
 K. Raghavachari, A. Rendell, J. C. Burant, S. S. Iyengar, J. Tomasi, 
 M. Cossi, N. Rega, J. M. Millam, M. Klene, J. E. Knox, J. B. Cross, 
 V. Bakken, C. Adamo, J. Jaramillo, R. Gomperts, R. E. Stratmann, 
 O. Yazyev, A. J. Austin, R. Cammi, C. Pomelli, J. W. Ochterski, 
 R. L. Martin, K. Morokuma, V. G. Zakrzewski, G. A. Voth, 
 P. Salvador, J. J. Dannenberg, S. Dapprich, A. D. Daniels, 
 O. Farkas, J. B. Foresman, J. V. Ortiz, J. Cioslowski, 
 and D. J. Fox, Gaussian, Inc., Wallingford CT, 2009.
 
 ******************************************
 Gaussian 09:  AM64L-G09RevA.02 11-Jun-2009
                10-Jan-2012 
 ******************************************
 %nprocshared=4
 Will use up to    4 processors via shared memory.
 %mem=4GB
 %chk=opt_c343.chk
 Default route:  MaxDisk=200GB
 ---------------------------------
 #p b3lyp/6-31+g(d,p) opt pop=full
 ---------------------------------
 1/14=-1,18=20,19=15,26=3,38=1/1,3;
 2/9=110,12=2,17=6,18=5,40=1/2;
 3/5=1,6=6,7=111,11=2,16=1,25=1,30=1,71=1,74=-5/1,2,3;
 4//1;
 5/5=2,38=5/2;
 6/7=3,28=1/1;
 7//1,2,3,16;
 1/14=-1,18=20,19=15/3(2);
 2/9=110/2;
 99//99;
 2/9=110/2;
 3/5=1,6=6,7=111,11=2,16=1,25=1,30=1,71=1,74=-5/1,2,3;
 4/5=5,16=3/1;
 5/5=2,38=5/2;
 7//1,2,3,16;
 1/14=-1,18=20,19=15/3(-5);
 2/9=110/2;
 6/7=3,19=2,28=1/1;
 99/9=1/99;
 Leave Link    1 at Tue Jan 10 03:24:36 2012, MaxMem=  536870912 cpu:       1.2
 (Enter /usr/local/gaussian/g09/l101.exe)
 ----
 c343
 ----
 Symbolic Z-matrix:
 Charge =  0 Multiplicity = 1
 O                    -4.6146    1.0304   -0.9613 
 C                    -3.7647    1.3478   -0.1476 
 O                    -3.3144    0.5183    0.8212 
 C                    -3.0503    2.6295   -0.1737 
 C                    -1.7584    2.6035   -0.5331 
 C                    -1.0144    3.8478   -0.6405 
 C                    -1.6636    5.0544   -0.4032 
 O                    -3.0314    5.0566   -0.0449 
 C                    -3.7625    3.8834    0.1177 
 O                    -4.9131    3.9035    0.5367 
 C                    -1.0012    6.2888   -0.4948 
 C                     0.3563    6.3187   -0.8735 
 C                     1.0116    5.0922   -1.1255 
 C                     0.3315    3.8689   -0.9945 
 C                     2.4686    5.0773   -1.5174 
 C                     2.8706    6.3895   -2.1734 
 C                     2.4665    7.5506   -1.2795 
 N                     1.0361    7.5229   -0.9974 
 C                     0.313     8.7866   -0.9214 
 C                    -0.7931    8.7093    0.117 
 C                    -1.7455    7.5742   -0.2318 
 H                    -2.6991    0.9293    1.4578 
 H                    -1.2524    1.676    -0.7868 
 H                     0.8638    2.9402   -1.1889 
 H                     3.0712    4.902    -0.618 
 H                     2.665     4.2569   -2.2178 
 H                     3.9515    6.4053   -2.351 
 H                     2.378     6.4852   -3.1498 
 H                     2.7403    8.4892   -1.7758 
 H                     3.0195    7.5143   -0.3331 
 H                    -0.1008    9.0284   -1.9081 
 H                     0.9957    9.6004   -0.6493 
 H                    -1.3401    9.6574    0.1627 
 H                    -0.3566    8.5367    1.1094 
 H                    -2.3241    7.8312   -1.1274 
 H                    -2.449     7.4493    0.5993 
 
 NAtoms=     36 NQM=     36 NQMF=      0 NMic=      0 NMicF=      0 NTot=     36.
                    Isotopes and Nuclear Properties:
 (Nuclear quadrupole moments (NQMom) in fm**2, nuclear magnetic moments (NMagM)
  in nuclear magnetons)

  Atom         1           2           3           4           5           6           7           8           9          10
 IAtWgt=          16          12          16          12          12          12          12          16          12          16
 AtmWgt=  15.9949146  12.0000000  15.9949146  12.0000000  12.0000000  12.0000000  12.0000000  15.9949146  12.0000000  15.9949146
 NucSpn=           0           0           0           0           0           0           0           0           0           0
 AtZEff=   0.0000000   0.0000000   0.0000000   0.0000000   0.0000000   0.0000000   0.0000000   0.0000000   0.0000000   0.0000000
 NQMom=    0.0000000   0.0000000   0.0000000   0.0000000   0.0000000   0.0000000   0.0000000   0.0000000   0.0000000   0.0000000
 NMagM=    0.0000000   0.0000000   0.0000000   0.0000000   0.0000000   0.0000000   0.0000000   0.0000000   0.0000000   0.0000000

  Atom        11          12          13          14          15          16          17          18          19          20
 IAtWgt=          12          12          12          12          12          12          12          14          12          12
 AtmWgt=  12.0000000  12.0000000  12.0000000  12.0000000  12.0000000  12.0000000  12.0000000  14.0030740  12.0000000  12.0000000
 NucSpn=           0           0           0           0           0           0           0           2           0           0
 AtZEff=   0.0000000   0.0000000   0.0000000   0.0000000   0.0000000   0.0000000   0.0000000   0.0000000   0.0000000   0.0000000
 NQMom=    0.0000000   0.0000000   0.0000000   0.0000000   0.0000000   0.0000000   0.0000000   2.0440000   0.0000000   0.0000000
 NMagM=    0.0000000   0.0000000   0.0000000   0.0000000   0.0000000   0.0000000   0.0000000   0.4037610   0.0000000   0.0000000

  Atom        21          22          23          24          25          26          27          28          29          30
 IAtWgt=          12           1           1           1           1           1           1           1           1           1
 AtmWgt=  12.0000000   1.0078250   1.0078250   1.0078250   1.0078250   1.0078250   1.0078250   1.0078250   1.0078250   1.0078250
 NucSpn=           0           1           1           1           1           1           1           1           1           1
 AtZEff=   0.0000000   0.0000000   0.0000000   0.0000000   0.0000000   0.0000000   0.0000000   0.0000000   0.0000000   0.0000000
 NQMom=    0.0000000   0.0000000   0.0000000   0.0000000   0.0000000   0.0000000   0.0000000   0.0000000   0.0000000   0.0000000
 NMagM=    0.0000000   2.7928460   2.7928460   2.7928460   2.7928460   2.7928460   2.7928460   2.7928460   2.7928460   2.7928460

  Atom        31          32          33          34          35          36
 IAtWgt=           1           1           1           1           1           1
 AtmWgt=   1.0078250   1.0078250   1.0078250   1.0078250   1.0078250   1.0078250
 NucSpn=           1           1           1           1           1           1
 AtZEff=   0.0000000   0.0000000   0.0000000   0.0000000   0.0000000   0.0000000
 NQMom=    0.0000000   0.0000000   0.0000000   0.0000000   0.0000000   0.0000000
 NMagM=    2.7928460   2.7928460   2.7928460   2.7928460   2.7928460   2.7928460
 Leave Link  101 at Tue Jan 10 03:24:45 2012, MaxMem=  536870912 cpu:       0.6
 (Enter /usr/local/gaussian/g09/l103.exe)

 GradGradGradGradGradGradGradGradGradGradGradGradGradGradGradGradGradGrad
 Berny optimization.
 Initialization pass.
                           ----------------------------
                           !    Initial Parameters    !
                           ! (Angstroms and Degrees)  !
 --------------------------                            --------------------------
 ! Name  Definition              Value          Derivative Info.                !
 --------------------------------------------------------------------------------
 ! R1    R(1,2)                  1.2187         estimate D2E/DX2                !
 ! R2    R(2,3)                  1.3526         estimate D2E/DX2                !
 ! R3    R(2,4)                  1.4676         estimate D2E/DX2                !
 ! R4    R(3,22)                 0.9761         estimate D2E/DX2                !
 ! R5    R(4,5)                  1.3412         estimate D2E/DX2                !
 ! R6    R(4,9)                  1.4712         estimate D2E/DX2                !
 ! R7    R(5,6)                  1.4537         estimate D2E/DX2                !
 ! R8    R(5,23)                 1.0866         estimate D2E/DX2                !
 ! R9    R(6,7)                  1.3906         estimate D2E/DX2                !
 ! R10   R(6,14)                 1.3918         estimate D2E/DX2                !
 ! R11   R(7,8)                  1.414          estimate D2E/DX2                !
 ! R12   R(7,11)                 1.4039         estimate D2E/DX2                !
 ! R13   R(8,9)                  1.3919         estimate D2E/DX2                !
 ! R14   R(9,10)                 1.2247         estimate D2E/DX2                !
 ! R15   R(11,12)                1.4097         estimate D2E/DX2                !
 ! R16   R(11,21)                1.5084         estimate D2E/DX2                !
 ! R17   R(12,13)                1.4132         estimate D2E/DX2                !
 ! R18   R(12,18)                1.3884         estimate D2E/DX2                !
 ! R19   R(13,14)                1.4058         estimate D2E/DX2                !
 ! R20   R(13,15)                1.5089         estimate D2E/DX2                !
 ! R21   R(14,24)                1.0879         estimate D2E/DX2                !
 ! R22   R(15,16)                1.5211         estimate D2E/DX2                !
 ! R23   R(15,25)                1.0967         estimate D2E/DX2                !
 ! R24   R(15,26)                1.0964         estimate D2E/DX2                !
 ! R25   R(16,17)                1.52           estimate D2E/DX2                !
 ! R26   R(16,27)                1.0955         estimate D2E/DX2                !
 ! R27   R(16,28)                1.0978         estimate D2E/DX2                !
 ! R28   R(17,18)                1.4582         estimate D2E/DX2                !
 ! R29   R(17,29)                1.0965         estimate D2E/DX2                !
 ! R30   R(17,30)                1.0967         estimate D2E/DX2                !
 ! R31   R(18,19)                1.4579         estimate D2E/DX2                !
 ! R32   R(19,20)                1.5191         estimate D2E/DX2                !
 ! R33   R(19,31)                1.0969         estimate D2E/DX2                !
 ! R34   R(19,32)                1.0965         estimate D2E/DX2                !
 ! R35   R(20,21)                1.5222         estimate D2E/DX2                !
 ! R36   R(20,33)                1.0955         estimate D2E/DX2                !
 ! R37   R(20,34)                1.0978         estimate D2E/DX2                !
 ! R38   R(21,35)                1.0968         estimate D2E/DX2                !
 ! R39   R(21,36)                1.096          estimate D2E/DX2                !
 ! A1    A(1,2,3)              123.4151         estimate D2E/DX2                !
 ! A2    A(1,2,4)              123.7152         estimate D2E/DX2                !
 ! A3    A(3,2,4)              112.7232         estimate D2E/DX2                !
 ! A4    A(2,3,22)             114.7574         estimate D2E/DX2                !
 ! A5    A(2,4,5)              117.1759         estimate D2E/DX2                !
 ! A6    A(2,4,9)              120.343          estimate D2E/DX2                !
 ! A7    A(5,4,9)              122.4048         estimate D2E/DX2                !
 ! A8    A(4,5,6)              119.7471         estimate D2E/DX2                !
 ! A9    A(4,5,23)             121.8484         estimate D2E/DX2                !
 ! A10   A(6,5,23)             118.3621         estimate D2E/DX2                !
 ! A11   A(5,6,7)              119.4168         estimate D2E/DX2                !
 ! A12   A(5,6,14)             121.78           estimate D2E/DX2                !
 ! A13   A(7,6,14)             118.7967         estimate D2E/DX2                !
 ! A14   A(6,7,8)              119.7501         estimate D2E/DX2                !
 ! A15   A(6,7,11)             122.1093         estimate D2E/DX2                !
 ! A16   A(8,7,11)             118.138          estimate D2E/DX2                !
 ! A17   A(7,8,9)              122.4393         estimate D2E/DX2                !
 ! A18   A(4,9,8)              116.1663         estimate D2E/DX2                !
 ! A19   A(4,9,10)             122.4503         estimate D2E/DX2                !
 ! A20   A(8,9,10)             121.3067         estimate D2E/DX2                !
 ! A21   A(7,11,12)            119.3771         estimate D2E/DX2                !
 ! A22   A(7,11,21)            120.336          estimate D2E/DX2                !
 ! A23   A(12,11,21)           120.2605         estimate D2E/DX2                !
 ! A24   A(11,12,13)           118.4265         estimate D2E/DX2                !
 ! A25   A(11,12,18)           120.9237         estimate D2E/DX2                !
 ! A26   A(13,12,18)           120.6499         estimate D2E/DX2                !
 ! A27   A(12,13,14)           120.9491         estimate D2E/DX2                !
 ! A28   A(12,13,15)           120.1746         estimate D2E/DX2                !
 ! A29   A(14,13,15)           118.867          estimate D2E/DX2                !
 ! A30   A(6,14,13)            120.3129         estimate D2E/DX2                !
 ! A31   A(6,14,24)            120.3732         estimate D2E/DX2                !
 ! A32   A(13,14,24)           119.306          estimate D2E/DX2                !
 ! A33   A(13,15,16)           111.0197         estimate D2E/DX2                !
 ! A34   A(13,15,25)           108.6116         estimate D2E/DX2                !
 ! A35   A(13,15,26)           110.2595         estimate D2E/DX2                !
 ! A36   A(16,15,25)           110.2641         estimate D2E/DX2                !
 ! A37   A(16,15,26)           108.8229         estimate D2E/DX2                !
 ! A38   A(25,15,26)           107.809          estimate D2E/DX2                !
 ! A39   A(15,16,17)           109.5772         estimate D2E/DX2                !
 ! A40   A(15,16,27)           110.0665         estimate D2E/DX2                !
 ! A41   A(15,16,28)           109.8881         estimate D2E/DX2                !
 ! A42   A(17,16,27)           110.281          estimate D2E/DX2                !
 ! A43   A(17,16,28)           109.7043         estimate D2E/DX2                !
 ! A44   A(27,16,28)           107.2946         estimate D2E/DX2                !
 ! A45   A(16,17,18)           111.1023         estimate D2E/DX2                !
 ! A46   A(16,17,29)           108.7423         estimate D2E/DX2                !
 ! A47   A(16,17,30)           110.3737         estimate D2E/DX2                !
 ! A48   A(18,17,29)           110.4122         estimate D2E/DX2                !
 ! A49   A(18,17,30)           109.0894         estimate D2E/DX2                !
 ! A50   A(29,17,30)           107.0386         estimate D2E/DX2                !
 ! A51   A(12,18,17)           120.9332         estimate D2E/DX2                !
 ! A52   A(12,18,19)           120.2843         estimate D2E/DX2                !
 ! A53   A(17,18,19)           118.6941         estimate D2E/DX2                !
 ! A54   A(18,19,20)           110.6499         estimate D2E/DX2                !
 ! A55   A(18,19,31)           109.346          estimate D2E/DX2                !
 ! A56   A(18,19,32)           110.3298         estimate D2E/DX2                !
 ! A57   A(20,19,31)           110.5734         estimate D2E/DX2                !
 ! A58   A(20,19,32)           108.7519         estimate D2E/DX2                !
 ! A59   A(31,19,32)           107.1261         estimate D2E/DX2                !
 ! A60   A(19,20,21)           109.6865         estimate D2E/DX2                !
 ! A61   A(19,20,33)           110.3668         estimate D2E/DX2                !
 ! A62   A(19,20,34)           109.6586         estimate D2E/DX2                !
 ! A63   A(21,20,33)           110.0291         estimate D2E/DX2                !
 ! A64   A(21,20,34)           109.7958         estimate D2E/DX2                !
 ! A65   A(33,20,34)           107.2704         estimate D2E/DX2                !
 ! A66   A(11,21,20)           111.5097         estimate D2E/DX2                !
 ! A67   A(11,21,35)           108.5182         estimate D2E/DX2                !
 ! A68   A(11,21,36)           110.5985         estimate D2E/DX2                !
 ! A69   A(20,21,35)           110.0257         estimate D2E/DX2                !
 ! A70   A(20,21,36)           108.2292         estimate D2E/DX2                !
 ! A71   A(35,21,36)           107.896          estimate D2E/DX2                !
 ! D1    D(1,2,3,22)          -174.2072         estimate D2E/DX2                !
 ! D2    D(4,2,3,22)            10.0512         estimate D2E/DX2                !
 ! D3    D(1,2,4,5)           -108.4571         estimate D2E/DX2                !
 ! D4    D(1,2,4,9)             68.4412         estimate D2E/DX2                !
 ! D5    D(3,2,4,5)             67.2697         estimate D2E/DX2                !
 ! D6    D(3,2,4,9)           -115.832          estimate D2E/DX2                !
 ! D7    D(2,4,5,6)            177.0399         estimate D2E/DX2                !
 ! D8    D(2,4,5,23)            -0.5495         estimate D2E/DX2                !
 ! D9    D(9,4,5,6)              0.2105         estimate D2E/DX2                !
 ! D10   D(9,4,5,23)          -177.3788         estimate D2E/DX2                !
 ! D11   D(2,4,9,8)           -174.5886         estimate D2E/DX2                !
 ! D12   D(2,4,9,10)             8.5594         estimate D2E/DX2                !
 ! D13   D(5,4,9,8)              2.1429         estimate D2E/DX2                !
 ! D14   D(5,4,9,10)          -174.709          estimate D2E/DX2                !
 ! D15   D(4,5,6,7)             -1.7133         estimate D2E/DX2                !
 ! D16   D(4,5,6,14)           179.2269         estimate D2E/DX2                !
 ! D17   D(23,5,6,7)           175.9598         estimate D2E/DX2                !
 ! D18   D(23,5,6,14)           -3.1001         estimate D2E/DX2                !
 ! D19   D(5,6,7,8)              0.7879         estimate D2E/DX2                !
 ! D20   D(5,6,7,11)          -179.8177         estimate D2E/DX2                !
 ! D21   D(14,6,7,8)           179.8759         estimate D2E/DX2                !
 ! D22   D(14,6,7,11)           -0.7296         estimate D2E/DX2                !
 ! D23   D(5,6,14,13)          178.2249         estimate D2E/DX2                !
 ! D24   D(5,6,14,24)           -0.7491         estimate D2E/DX2                !
 ! D25   D(7,6,14,13)           -0.8406         estimate D2E/DX2                !
 ! D26   D(7,6,14,24)         -179.8146         estimate D2E/DX2                !
 ! D27   D(6,7,8,9)              1.7241         estimate D2E/DX2                !
 ! D28   D(11,7,8,9)          -177.6943         estimate D2E/DX2                !
 ! D29   D(6,7,11,12)            1.7321         estimate D2E/DX2                !
 ! D30   D(6,7,11,21)          179.8687         estimate D2E/DX2                !
 ! D31   D(8,7,11,12)         -178.864          estimate D2E/DX2                !
 ! D32   D(8,7,11,21)           -0.7275         estimate D2E/DX2                !
 ! D33   D(7,8,9,4)             -3.1066         estimate D2E/DX2                !
 ! D34   D(7,8,9,10)           173.7843         estimate D2E/DX2                !
 ! D35   D(7,11,12,13)          -1.1338         estimate D2E/DX2                !
 ! D36   D(7,11,12,18)         178.8401         estimate D2E/DX2                !
 ! D37   D(21,11,12,13)       -179.2718         estimate D2E/DX2                !
 ! D38   D(21,11,12,18)          0.702          estimate D2E/DX2                !
 ! D39   D(7,11,21,20)         159.2179         estimate D2E/DX2                !
 ! D40   D(7,11,21,35)         -79.4378         estimate D2E/DX2                !
 ! D41   D(7,11,21,36)          38.7323         estimate D2E/DX2                !
 ! D42   D(12,11,21,20)        -22.6621         estimate D2E/DX2                !
 ! D43   D(12,11,21,35)         98.6822         estimate D2E/DX2                !
 ! D44   D(12,11,21,36)       -143.1477         estimate D2E/DX2                !
 ! D45   D(11,12,13,14)         -0.3951         estimate D2E/DX2                !
 ! D46   D(11,12,13,15)       -179.2745         estimate D2E/DX2                !
 ! D47   D(18,12,13,14)        179.631          estimate D2E/DX2                !
 ! D48   D(18,12,13,15)          0.7516         estimate D2E/DX2                !
 ! D49   D(11,12,18,17)        174.8331         estimate D2E/DX2                !
 ! D50   D(11,12,18,19)         -8.6298         estimate D2E/DX2                !
 ! D51   D(13,12,18,17)         -5.1936         estimate D2E/DX2                !
 ! D52   D(13,12,18,19)        171.3434         estimate D2E/DX2                !
 ! D53   D(12,13,14,6)           1.4074         estimate D2E/DX2                !
 ! D54   D(12,13,14,24)       -179.6077         estimate D2E/DX2                !
 ! D55   D(15,13,14,6)        -179.6988         estimate D2E/DX2                !
 ! D56   D(15,13,14,24)         -0.714          estimate D2E/DX2                !
 ! D57   D(12,13,15,16)        -25.3086         estimate D2E/DX2                !
 ! D58   D(12,13,15,25)         96.0852         estimate D2E/DX2                !
 ! D59   D(12,13,15,26)       -145.9905         estimate D2E/DX2                !
 ! D60   D(14,13,15,16)        155.7888         estimate D2E/DX2                !
 ! D61   D(14,13,15,25)        -82.8174         estimate D2E/DX2                !
 ! D62   D(14,13,15,26)         35.1069         estimate D2E/DX2                !
 ! D63   D(13,15,16,17)         52.3534         estimate D2E/DX2                !
 ! D64   D(13,15,16,27)        173.7915         estimate D2E/DX2                !
 ! D65   D(13,15,16,28)        -68.2574         estimate D2E/DX2                !
 ! D66   D(25,15,16,17)        -68.0662         estimate D2E/DX2                !
 ! D67   D(25,15,16,27)         53.3719         estimate D2E/DX2                !
 ! D68   D(25,15,16,28)        171.323          estimate D2E/DX2                !
 ! D69   D(26,15,16,17)        173.8804         estimate D2E/DX2                !
 ! D70   D(26,15,16,27)        -64.6815         estimate D2E/DX2                !
 ! D71   D(26,15,16,28)         53.2696         estimate D2E/DX2                !
 ! D72   D(15,16,17,18)        -56.926          estimate D2E/DX2                !
 ! D73   D(15,16,17,29)       -178.6426         estimate D2E/DX2                !
 ! D74   D(15,16,17,30)         64.2229         estimate D2E/DX2                !
 ! D75   D(27,16,17,18)       -178.2348         estimate D2E/DX2                !
 ! D76   D(27,16,17,29)         60.0485         estimate D2E/DX2                !
 ! D77   D(27,16,17,30)        -57.086          estimate D2E/DX2                !
 ! D78   D(28,16,17,18)         63.7964         estimate D2E/DX2                !
 ! D79   D(28,16,17,29)        -57.9202         estimate D2E/DX2                !
 ! D80   D(28,16,17,30)       -175.0547         estimate D2E/DX2                !
 ! D81   D(16,17,18,12)         33.8044         estimate D2E/DX2                !
 ! D82   D(16,17,18,19)       -142.7866         estimate D2E/DX2                !
 ! D83   D(29,17,18,12)        154.5414         estimate D2E/DX2                !
 ! D84   D(29,17,18,19)        -22.0496         estimate D2E/DX2                !
 ! D85   D(30,17,18,12)        -88.0954         estimate D2E/DX2                !
 ! D86   D(30,17,18,19)         95.3135         estimate D2E/DX2                !
 ! D87   D(12,18,19,20)         37.6834         estimate D2E/DX2                !
 ! D88   D(12,18,19,31)        -84.344          estimate D2E/DX2                !
 ! D89   D(12,18,19,32)        158.0808         estimate D2E/DX2                !
 ! D90   D(17,18,19,20)       -145.7028         estimate D2E/DX2                !
 ! D91   D(17,18,19,31)         92.2698         estimate D2E/DX2                !
 ! D92   D(17,18,19,32)        -25.3054         estimate D2E/DX2                !
 ! D93   D(18,19,20,21)        -58.0092         estimate D2E/DX2                !
 ! D94   D(18,19,20,33)       -179.3978         estimate D2E/DX2                !
 ! D95   D(18,19,20,34)         62.6393         estimate D2E/DX2                !
 ! D96   D(31,19,20,21)         63.2955         estimate D2E/DX2                !
 ! D97   D(31,19,20,33)        -58.0931         estimate D2E/DX2                !
 ! D98   D(31,19,20,34)       -176.056          estimate D2E/DX2                !
 ! D99   D(32,19,20,21)       -179.3436         estimate D2E/DX2                !
 ! D100  D(32,19,20,33)         59.2678         estimate D2E/DX2                !
 ! D101  D(32,19,20,34)        -58.6951         estimate D2E/DX2                !
 ! D102  D(19,20,21,11)         50.3797         estimate D2E/DX2                !
 ! D103  D(19,20,21,35)        -70.084          estimate D2E/DX2                !
 ! D104  D(19,20,21,36)        172.2455         estimate D2E/DX2                !
 ! D105  D(33,20,21,11)        171.9711         estimate D2E/DX2                !
 ! D106  D(33,20,21,35)         51.5074         estimate D2E/DX2                !
 ! D107  D(33,20,21,36)        -66.1631         estimate D2E/DX2                !
 ! D108  D(34,20,21,11)        -70.1857         estimate D2E/DX2                !
 ! D109  D(34,20,21,35)        169.3506         estimate D2E/DX2                !
 ! D110  D(34,20,21,36)         51.6802         estimate D2E/DX2                !
 --------------------------------------------------------------------------------
 Trust Radius=3.00D-01 FncErr=1.00D-07 GrdErr=1.00D-06
 Number of steps in this run= 216 maximum allowed number of steps= 216.
 GradGradGradGradGradGradGradGradGradGradGradGradGradGradGradGradGradGrad

 Leave Link  103 at Tue Jan 10 03:24:52 2012, MaxMem=  536870912 cpu:       0.0
 (Enter /usr/local/gaussian/g09/l202.exe)
                          Input orientation:                          
 ---------------------------------------------------------------------
 Center     Atomic      Atomic             Coordinates (Angstroms)
 Number     Number       Type             X           Y           Z
 ---------------------------------------------------------------------
      1          8           0       -4.614600    1.030400   -0.961300
      2          6           0       -3.764700    1.347800   -0.147600
      3          8           0       -3.314400    0.518300    0.821200
      4          6           0       -3.050300    2.629500   -0.173700
      5          6           0       -1.758400    2.603500   -0.533100
      6          6           0       -1.014400    3.847800   -0.640500
      7          6           0       -1.663600    5.054400   -0.403200
      8          8           0       -3.031400    5.056600   -0.044900
      9          6           0       -3.762500    3.883400    0.117700
     10          8           0       -4.913100    3.903500    0.536700
     11          6           0       -1.001200    6.288800   -0.494800
     12          6           0        0.356300    6.318700   -0.873500
     13          6           0        1.011600    5.092200   -1.125500
     14          6           0        0.331500    3.868900   -0.994500
     15          6           0        2.468600    5.077300   -1.517400
     16          6           0        2.870600    6.389500   -2.173400
     17          6           0        2.466500    7.550600   -1.279500
     18          7           0        1.036100    7.522900   -0.997400
     19          6           0        0.313000    8.786600   -0.921400
     20          6           0       -0.793100    8.709300    0.117000
     21          6           0       -1.745500    7.574200   -0.231800
     22          1           0       -2.699100    0.929300    1.457800
     23          1           0       -1.252400    1.676000   -0.786800
     24          1           0        0.863800    2.940200   -1.188900
     25          1           0        3.071200    4.902000   -0.618000
     26          1           0        2.665000    4.256900   -2.217800
     27          1           0        3.951500    6.405300   -2.351000
     28          1           0        2.378000    6.485200   -3.149800
     29          1           0        2.740300    8.489200   -1.775800
     30          1           0        3.019500    7.514300   -0.333100
     31          1           0       -0.100800    9.028400   -1.908100
     32          1           0        0.995700    9.600400   -0.649300
     33          1           0       -1.340100    9.657400    0.162700
     34          1           0       -0.356600    8.536700    1.109400
     35          1           0       -2.324100    7.831200   -1.127400
     36          1           0       -2.449000    7.449300    0.599300
 ---------------------------------------------------------------------
                    Distance matrix (angstroms):
                    1          2          3          4          5
     1  O    0.000000
     2  C    1.218680   0.000000
     3  O    2.264966   1.352558   0.000000
     4  C    2.371596   1.467584   2.348774   0.000000
     5  C    3.288750   2.398048   2.933142   1.341212   0.000000
     6  C    4.582804   3.749280   4.302573   2.418067   1.453738
     7  C    5.021200   4.268353   4.980010   2.802811   2.456170
     8  O    4.422284   3.781993   4.628864   2.430589   2.806522
     9  C    3.167006   2.549442   3.466930   1.471193   2.465381
    10  O    3.253891   2.884214   3.754512   2.365960   3.575836
    11  C    6.397269   5.671945   6.354638   4.206233   3.762480
    12  C    7.258352   6.497647   7.070409   5.069994   4.288419
    13  C    6.941132   6.147346   6.589725   4.844569   3.770605
    14  C    5.702814   4.883855   5.274076   3.694103   2.486324
    15  C    8.176697   7.391857   7.726359   6.185104   4.995604
    16  C    9.285330   8.576119   9.038409   7.293384   6.200969
    17  C    9.631004   8.864749   9.342644   7.474965   6.548335
    18  N    8.607222   7.867763   8.443848   6.428259   5.676733
    19  C    9.189204   8.518342   9.195622   7.055546   6.532396
    20  C    8.644773   7.943054   8.599147   6.491797   6.215724
    21  C    7.182285   6.546168   7.304518   5.114288   4.979840
    22  H    3.087298   1.971790   0.976102   2.382397   2.766143
    23  H    3.428066   2.613033   2.859681   2.125441   1.086580
    24  H    5.806204   5.004304   5.231009   4.055533   2.723853
    25  H    8.612704   7.719012   7.878071   6.544801   5.349331
    26  H    8.061121   7.354565   7.678924   6.284221   5.013822
    27  H   10.207786   9.485411   9.874863   8.247576   7.096577
    28  H    9.134595   8.552125   9.152931   7.293150   6.246961
    29  H   10.506744   9.796206  10.341134   8.392488   7.511596
    30  H   10.035690   9.169815   9.507613   7.792891   6.854508
    31  H    9.232487   8.689945   9.497268   7.256281   6.776253
    32  H   10.247815   9.540363  10.159915   8.074017   7.520318
    33  H    9.295744   8.661664   9.373080   7.240810   7.100466
    34  H    8.874847   8.054532   8.551396   6.617959   6.313930
    35  H    7.178082   6.713405   7.632578   5.338033   5.291697
    36  H    6.951804   6.286273   6.988342   4.918289   5.024046
                    6          7          8          9         10
     6  C    0.000000
     7  C    1.390559   0.000000
     8  O    2.425742   1.413952   0.000000
     9  C    2.850998   2.459260   1.391885   0.000000
    10  O    4.072931   3.573127   2.282256   1.224682   0.000000
    11  C    2.445380   1.403890   2.417114   3.712935   4.696447
    12  C    2.835217   2.428916   3.708906   4.886479   5.965604
    13  C    2.426609   2.771253   4.185070   5.079249   6.267215
    14  C    1.391836   2.394884   3.690727   4.242409   5.463662
    15  C    3.796303   4.279841   5.693741   6.551760   7.751556
    16  C    4.889095   5.047283   6.414105   7.451691   8.608764
    17  C    5.122081   4.904757   6.162076   7.362130   8.429615
    18  N    4.223540   3.706069   4.851232   6.125028   7.130673
    19  C    5.121781   4.254973   5.085879   6.459938   7.299510
    20  C    4.925136   3.792977   4.287005   5.666273   6.343994
    21  C    3.819372   2.526950   2.833157   4.220479   4.909004
    22  H    3.969725   4.642417   4.404899   3.413707   3.820483
    23  H    2.189695   3.424883   3.891492   3.462851   4.484878
    24  H    2.156876   3.387465   4.578260   4.898927   6.105589
    25  H    4.219475   4.742119   6.131400   6.948256   8.128922
    26  H    4.024080   4.760836   6.148983   6.848855   8.070921
    27  H    5.841813   6.094933   7.476495   8.482939   9.652924
    28  H    4.976027   5.091712   6.398665   7.426416   8.568290
    29  H    6.076946   5.751193   6.934788   8.190552   9.216878
    30  H    5.459860   5.290316   6.537334   7.705983   8.759028
    31  H    5.411108   4.527664   5.275900   6.631963   7.443109
    32  H    6.093684   5.272434   6.101553   7.477489   8.293080
    33  H    5.873897   4.648925   4.906216   6.261719   6.783330
    34  H    5.047835   4.015298   4.538509   5.851224   6.523513
    35  H    4.221358   2.944715   3.061125   4.382282   4.989887
    36  H    4.070133   2.712454   2.545427   3.830517   4.318380
                   11         12         13         14         15
    11  C    0.000000
    12  C    1.409650   0.000000
    13  C    2.425077   1.413232   0.000000
    14  C    2.807438   2.452912   1.405760   0.000000
    15  C    3.814834   2.533277   1.508859   2.510150   0.000000
    16  C    4.221217   2.831335   2.497391   3.766996   1.521121
    17  C    3.772643   2.476965   2.860801   4.265485   2.484716
    18  N    2.434379   1.388372   2.434196   3.721315   2.881565
    19  C    2.854490   2.468745   3.765407   4.918278   4.331366
    20  C    2.505279   2.831462   4.228967   5.092114   5.147949
    21  C    1.508444   2.530933   3.815839   4.315656   5.064180
    22  H    5.951450   6.619370   6.145931   4.882577   7.263804
    23  H    4.628854   4.914275   4.112279   2.713059   5.093963
    24  H    3.895269   3.430932   2.158001   1.087942   2.692674
    25  H    4.303816   3.072947   2.129715   2.952119   1.096712
    26  H    4.531928   3.374649   2.150483   2.663124   1.096444
    27  H    5.290396   3.887926   3.445155   4.623615   2.158116
    28  H    4.301929   3.049022   2.811634   3.959609   2.157573
    29  H    4.525654   3.347935   3.866640   5.268768   3.432441
    30  H    4.206427   2.968859   3.244400   4.577307   2.764964
    31  H    3.211471   2.936292   4.164561   5.257565   4.729234
    32  H    3.870165   3.350918   4.533309   5.780174   4.835439
    33  H    3.448859   3.885666   5.294431   6.135152   6.189204
    34  H    2.835846   3.059353   4.327971   5.166066   5.181629
    35  H    2.128202   3.088149   4.316135   4.771760   5.541303
    36  H    2.154052   3.364090   4.528422   4.805272   5.855732
                   16         17         18         19         20
    16  C    0.000000
    17  C    1.520035   0.000000
    18  N    2.456209   1.458215   0.000000
    19  C    3.722218   2.508684   1.457939   0.000000
    20  C    4.904090   3.730655   2.448552   1.519114   0.000000
    21  C    5.146038   4.340412   2.885494   2.486541   1.522228
    22  H    8.603543   8.832771   7.965883   8.744741   8.121513
    23  H    6.413959   6.970215   6.282342   7.282117   7.105992
    24  H    4.110250   4.881869   4.589935   5.878378   6.142736
    25  H    2.161519   2.796127   3.339864   4.773870   5.474356
    26  H    2.142948   3.430491   3.848304   5.265998   6.101935
    27  H    1.095507   2.159873   3.403060   4.577448   5.823287
    28  H    1.097802   2.154282   2.740500   3.811356   5.066999
    29  H    2.140982   1.096472   2.108065   2.590411   4.014480
    30  H    2.161955   1.096722   2.091708   3.047948   4.020763
    31  H    3.982888   3.028211   2.094862   1.096939   2.163824
    32  H    4.018459   2.600401   2.106849   1.096535   2.140346
    33  H    5.819496   4.583530   3.398271   2.160163   1.095532
    34  H    5.079573   3.827418   2.721399   2.152896   1.097807
    35  H    5.491587   4.801221   3.376817   2.812387   2.159526
    36  H    6.091731   5.263297   3.834161   3.424842   2.135935
                   21         22         23         24         25
    21  C    0.000000
    22  H    6.922340   0.000000
    23  H    5.944740   2.772856   0.000000
    24  H    5.403558   4.872679   2.497637   0.000000
    25  H    5.521811   7.306686   5.397137   3.007857   0.000000
    26  H    5.865252   7.304555   4.904572   2.456961   1.772149
    27  H    6.189761   9.419343   7.203720   4.784484   2.457260
    28  H    5.167581   8.824678   6.472401   4.324923   3.065462
    29  H    4.831518   9.858769   7.958610   5.887029   3.783913
    30  H    4.766453   8.903479   7.248498   5.128531   2.628298
    31  H    2.762194   9.147451   7.526040   6.205955   5.362193
    32  H    3.434235   9.658126   8.238263   6.683325   5.136501
    33  H    2.158634   8.927704   8.038158   7.197553   6.533214
    34  H    2.157375   7.967511   7.174067   6.171902   5.286281
    35  H    1.096780   7.379709   6.257079   5.838525   6.160273
    36  H    1.096011   6.581031   6.056742   5.874035   6.200255
                   26         27         28         29         30
    26  H    0.000000
    27  H    2.507678   0.000000
    28  H    2.432347   1.766456   0.000000
    29  H    4.255984   2.478003   2.456655   0.000000
    30  H    3.780003   2.484034   3.066654   1.763453   0.000000
    31  H    5.523837   4.847468   3.762198   2.894838   3.809120
    32  H    5.813755   4.673457   4.227023   2.355291   2.923621
    33  H    7.132532   6.700438   5.904217   4.666062   4.883115
    34  H    6.206208   5.922580   5.461453   4.232898   3.811057
    35  H    6.233435   6.550843   5.292595   5.147964   5.411599
    36  H    6.654357   7.124648   6.187501   5.800976   5.547800
                   31         32         33         34         35
    31  H    0.000000
    32  H    1.764674   0.000000
    33  H    2.493936   2.473571   0.000000
    34  H    3.067981   2.460325   1.766205   0.000000
    35  H    2.643075   3.792060   2.442871   3.061382   0.000000
    36  H    3.780827   4.248787   2.509180   2.412629   1.772834
                   36
    36  H    0.000000
 Stoichiometry    C16H15NO4
 Framework group  C1[X(C16H15NO4)]
 Deg. of freedom   102
 Full point group                 C1      NOp   1
 Largest Abelian subgroup         C1      NOp   1
 Largest concise Abelian subgroup C1      NOp   1
                         Standard orientation:                         
 ---------------------------------------------------------------------
 Center     Atomic      Atomic             Coordinates (Angstroms)
 Number     Number       Type             X           Y           Z
 ---------------------------------------------------------------------
      1          8           0       -5.148484   -0.470584   -1.115029
      2          6           0       -4.465429   -0.609468   -0.115366
      3          8           0       -4.897705   -1.239942    1.000454
      4          6           0       -3.058425   -0.201624   -0.027012
      5          6           0       -2.138778   -1.177313    0.006611
      6          6           0       -0.725788   -0.836247    0.028712
      7          6           0       -0.344908    0.500188   -0.021547
      8          8           0       -1.333260    1.509843   -0.076487
      9          6           0       -2.695138    1.223864   -0.047385
     10          8           0       -3.531512    2.116133    0.017274
     11          6           0        1.002814    0.893065   -0.007309
     12          6           0        2.010151   -0.092570    0.022827
     13          6           0        1.621489   -1.450734    0.062286
     14          6           0        0.263561   -1.813896    0.079697
     15          6           0        2.666901   -2.537611    0.111964
     16          6           0        3.978456   -2.061214   -0.493575
     17          6           0        4.393987   -0.751848    0.157118
     18          7           0        3.353159    0.259311    0.013503
     19          6           0        3.748939    1.643559   -0.216287
     20          6           0        2.778728    2.597379    0.459455
     21          6           0        1.370977    2.354698   -0.066399
     22          1           0       -4.281151   -1.202023    1.756231
     23          1           0       -2.415887   -2.227606   -0.020761
     24          1           0       -0.005497   -2.867396    0.116625
     25          1           0        2.816193   -2.832124    1.157790
     26          1           0        2.322892   -3.420767   -0.439290
     27          1           0        4.755868   -2.819741   -0.350731
     28          1           0        3.859345   -1.915621   -1.575141
     29          1           0        5.326870   -0.408841   -0.305835
     30          1           0        4.601368   -0.904218    1.223222
     31          1           0        3.789531    1.835523   -1.295535
     32          1           0        4.754765    1.823287    0.181708
     33          1           0        3.074328    3.636017    0.274950
     34          1           0        2.802164    2.439890    1.545654
     35          1           0        1.295812    2.691036   -1.107625
     36          1           0        0.673754    2.952445    0.531780
 ---------------------------------------------------------------------
 Rotational constants (GHZ):      0.6977149      0.1795842      0.1476157
 Leave Link  202 at Tue Jan 10 03:24:53 2012, MaxMem=  536870912 cpu:       0.0
 (Enter /usr/local/gaussian/g09/l301.exe)
 Standard basis: 6-31+G(d,p) (6D, 7F)
 Ernie: Thresh=  0.10000D-02 Tol=  0.10000D-05 Strict=F.
 There are   474 symmetry adapted basis functions of A   symmetry.
 Integral buffers will be    131072 words long.
 Raffenetti 2 integral format.
 Two-electron integral symmetry is turned on.
   474 basis functions,   777 primitive gaussians,   474 cartesian basis functions
    75 alpha electrons       75 beta electrons
       nuclear repulsion energy      1650.4716838755 Hartrees.
 IExCor=  402 DFT=T Ex+Corr=B3LYP ExCW=0 ScaHFX=  0.200000
 ScaDFX=  0.800000  0.720000  1.000000  0.810000 ScalE2=  1.000000  1.000000
 IRadAn=      0 IRanWt=     -1 IRanGd=            0 ICorTp=0
 NAtoms=   36 NActive=   36 NUniq=   36 SFac= 7.50D-01 NAtFMM=   80 NAOKFM=F Big=F
 Leave Link  301 at Tue Jan 10 03:25:02 2012, MaxMem=  536870912 cpu:       6.8
 (Enter /usr/local/gaussian/g09/l302.exe)
 NPDir=0 NMtPBC=     1 NCelOv=     1 NCel=       1 NClECP=     1 NCelD=      1
         NCelK=      1 NCelE2=     1 NClLst=     1 CellRange=     0.0.
 One-electron integrals computed using PRISM.
 NBasis=   474 RedAO= T  NBF=   474
 NBsUse=   469 1.00D-06 NBFU=   469
 Precomputing XC quadrature grid using
 IXCGrd= 2 IRadAn=           0 IRanWt=          -1 IRanGd=           0 AccXCQ= 1.00D-10.
 NRdTot=    2342 NPtTot=      298786 NUsed=      315661 NTot=      315693
 NSgBfM=   470   470   470   470   470 NAtAll=    36    36.
 Leave Link  302 at Tue Jan 10 03:25:10 2012, MaxMem=  536870912 cpu:       7.6
 (Enter /usr/local/gaussian/g09/l303.exe)
 DipDrv:  MaxL=1.
 Leave Link  303 at Tue Jan 10 03:25:21 2012, MaxMem=  536870912 cpu:       8.8
 (Enter /usr/local/gaussian/g09/l401.exe)
 Harris functional with IExCor=  402 diagonalized for initial guess.
 ExpMin= 4.38D-02 ExpMax= 5.48D+03 ExpMxC= 8.25D+02 IAcc=2 IRadAn=         0 AccDes= 0.00D+00
 HarFok:  IExCor=  402 AccDes= 0.00D+00 IRadAn=         0 IDoV= 1
 ScaDFX=  1.000000  1.000000  1.000000  1.000000
 FoFCou: FMM=F IPFlag=           0 FMFlag=      100000 FMFlg1=           0
         NFxFlg=           0 DoJE=T BraDBF=F KetDBF=T FulRan=T
         Omega=  0.000000  0.000000  1.000000  0.000000  0.000000 ICntrl=     500 IOpCl=  0
         NMat0=    1 NMatS0=    1 NMatT0=    0 NMatD0=    1 NMtDS0=    0 NMtDT0=    0
         I1Cent=           4 NGrid=           0.
 Petite list used in FoFCou.
 Harris En= -974.556108054762    
 Initial guess orbital symmetries:
       Occupied  (A) (A) (A) (A) (A) (A) (A) (A) (A) (A) (A) (A)
                 (A) (A) (A) (A) (A) (A) (A) (A) (A) (A) (A) (A)
                 (A) (A) (A) (A) (A) (A) (A) (A) (A) (A) (A) (A)
                 (A) (A) (A) (A) (A) (A) (A) (A) (A) (A) (A) (A)
                 (A) (A) (A) (A) (A) (A) (A) (A) (A) (A) (A) (A)
                 (A) (A) (A) (A) (A) (A) (A) (A) (A) (A) (A) (A)
                 (A) (A) (A)
       Virtual   (A) (A) (A) (A) (A) (A) (A) (A) (A) (A) (A) (A)
                 (A) (A) (A) (A) (A) (A) (A) (A) (A) (A) (A) (A)
                 (A) (A) (A) (A) (A) (A) (A) (A) (A) (A) (A) (A)
                 (A) (A) (A) (A) (A) (A) (A) (A) (A) (A) (A) (A)
                 (A) (A) (A) (A) (A) (A) (A) (A) (A) (A) (A) (A)
                 (A) (A) (A) (A) (A) (A) (A) (A) (A) (A) (A) (A)
                 (A) (A) (A) (A) (A) (A) (A) (A) (A) (A) (A) (A)
                 (A) (A) (A) (A) (A) (A) (A) (A) (A) (A) (A) (A)
                 (A) (A) (A) (A) (A) (A) (A) (A) (A) (A) (A) (A)
                 (A) (A) (A) (A) (A) (A) (A) (A) (A) (A) (A) (A)
                 (A) (A) (A) (A) (A) (A) (A) (A) (A) (A) (A) (A)
                 (A) (A) (A) (A) (A) (A) (A) (A) (A) (A) (A) (A)
                 (A) (A) (A) (A) (A) (A) (A) (A) (A) (A) (A) (A)
                 (A) (A) (A) (A) (A) (A) (A) (A) (A) (A) (A) (A)
                 (A) (A) (A) (A) (A) (A) (A) (A) (A) (A) (A) (A)
                 (A) (A) (A) (A) (A) (A) (A) (A) (A) (A) (A) (A)
                 (A) (A) (A) (A) (A) (A) (A) (A) (A) (A) (A) (A)
                 (A) (A) (A) (A) (A) (A) (A) (A) (A) (A) (A) (A)
                 (A) (A) (A) (A) (A) (A) (A) (A) (A) (A) (A) (A)
                 (A) (A) (A) (A) (A) (A) (A) (A) (A) (A) (A) (A)
                 (A) (A) (A) (A) (A) (A) (A) (A) (A) (A) (A) (A)
                 (A) (A) (A) (A) (A) (A) (A) (A) (A) (A) (A) (A)
                 (A) (A) (A) (A) (A) (A) (A) (A) (A) (A) (A) (A)
                 (A) (A) (A) (A) (A) (A) (A) (A) (A) (A) (A) (A)
                 (A) (A) (A) (A) (A) (A) (A) (A) (A) (A) (A) (A)
                 (A) (A) (A) (A) (A) (A) (A) (A) (A) (A) (A) (A)
                 (A) (A) (A) (A) (A) (A) (A) (A) (A) (A) (A) (A)
                 (A) (A) (A) (A) (A) (A) (A) (A) (A) (A) (A) (A)
                 (A) (A) (A) (A) (A) (A) (A) (A) (A) (A) (A) (A)
                 (A) (A) (A) (A) (A) (A) (A) (A) (A) (A) (A) (A)
                 (A) (A) (A) (A) (A) (A) (A) (A) (A) (A) (A) (A)
                 (A) (A) (A) (A) (A) (A) (A) (A) (A) (A) (A) (A)
                 (A) (A) (A) (A) (A) (A) (A) (A) (A) (A)
 The electronic state of the initial guess is 1-A.
 Leave Link  401 at Tue Jan 10 03:25:31 2012, MaxMem=  536870912 cpu:      32.6
 (Enter /usr/local/gaussian/g09/l502.exe)
 Closed shell SCF:
 Requested convergence on RMS density matrix=1.00D-08 within 128 cycles.
 Requested convergence on MAX density matrix=1.00D-06.
 Requested convergence on             energy=1.00D-06.
 No special actions if energy rises.
 Using DIIS extrapolation, IDIIS=  1040.
 Integral symmetry usage will be decided dynamically.
       315324 words used for storage of precomputed grid.
 IEnd=     1013882 IEndB=     1013882 NGot=   536870912 MDV=   536098821
 LenX=   536098821 LenY=   535873671
 Fock matrices will be formed incrementally for  20 cycles.

 Cycle   1  Pass 1  IDiag  1:
 FoFCou: FMM=F IPFlag=           0 FMFlag=      100000 FMFlg1=           0
         NFxFlg=           0 DoJE=F BraDBF=F KetDBF=F FulRan=T
         Omega=  0.000000  0.000000  1.000000  0.000000  0.000000 ICntrl=       0 IOpCl=  0
         NMat0=    1 NMatS0=    1 NMatT0=    0 NMatD0=    1 NMtDS0=    0 NMtDT0=    0
         I1Cent=           0 NGrid=           0.
 Symmetry not used in FoFCou.
 E= -973.930882103653    
 DIIS: error= 1.60D-02 at cycle   1 NSaved=   1.
 NSaved= 1 IEnMin= 1 EnMin= -973.930882103653     IErMin= 1 ErrMin= 1.60D-02
 ErrMax= 1.60D-02 EMaxC= 1.00D-01 BMatC= 5.62D-01 BMatP= 5.62D-01
 IDIUse=3 WtCom= 8.40D-01 WtEn= 1.60D-01
 Coeff-Com:  0.100D+01
 Coeff-En:   0.100D+01
 Coeff:      0.100D+01
 Gap=     0.114 Goal=   None    Shift=    0.000
 GapD=    0.114 DampG=1.000 DampE=0.500 DampFc=0.5000 IDamp=-1.
 Damping current iteration by 5.00D-01
 RMSDP=6.41D-02 MaxDP=5.54D+00              OVMax= 2.63D-01

 Cycle   2  Pass 1  IDiag  1:
 RMSU=  1.93D-02    CP:  1.22D+00
 E= -974.033098580022     Delta-E=       -0.102216476369 Rises=F Damp=T
 DIIS: error= 8.15D-03 at cycle   2 NSaved=   2.
 NSaved= 2 IEnMin= 2 EnMin= -974.033098580022     IErMin= 2 ErrMin= 8.15D-03
 ErrMax= 8.15D-03 EMaxC= 1.00D-01 BMatC= 1.30D-01 BMatP= 5.62D-01
 IDIUse=3 WtCom= 9.18D-01 WtEn= 8.15D-02
 Coeff-Com:  0.266D+00 0.734D+00
 Coeff-En:   0.399D+00 0.601D+00
 Coeff:      0.277D+00 0.723D+00
 Gap=     0.177 Goal=   None    Shift=    0.000
 RMSDP=3.44D-02 MaxDP=4.67D+00 DE=-1.02D-01 OVMax= 2.27D-01

 Cycle   3  Pass 1  IDiag  1:
 RMSU=  7.49D-03    CP:  8.22D-01  5.76D-01
 E= -974.339320921216     Delta-E=       -0.306222341194 Rises=F Damp=F
 DIIS: error= 1.00D-02 at cycle   3 NSaved=   3.
 NSaved= 3 IEnMin= 3 EnMin= -974.339320921216     IErMin= 2 ErrMin= 8.15D-03
 ErrMax= 1.00D-02 EMaxC= 1.00D-01 BMatC= 1.33D-01 BMatP= 1.30D-01
 IDIUse=3 WtCom= 9.00D-01 WtEn= 1.00D-01
 Coeff-Com:  0.884D-01 0.488D+00 0.423D+00
 Coeff-En:   0.000D+00 0.000D+00 0.100D+01
 Coeff:      0.796D-01 0.439D+00 0.481D+00
 Gap=     0.133 Goal=   None    Shift=    0.000
 RMSDP=9.33D-03 MaxDP=1.12D+00 DE=-3.06D-01 OVMax= 9.79D-02

 Cycle   4  Pass 1  IDiag  1:
 RMSU=  3.57D-03    CP:  8.88D-01  4.13D-01  6.22D-01
 E= -974.439174019206     Delta-E=       -0.099853097990 Rises=F Damp=F
 DIIS: error= 3.93D-03 at cycle   4 NSaved=   4.
 NSaved= 4 IEnMin= 4 EnMin= -974.439174019206     IErMin= 4 ErrMin= 3.93D-03
 ErrMax= 3.93D-03 EMaxC= 1.00D-01 BMatC= 2.07D-02 BMatP= 1.30D-01
 IDIUse=3 WtCom= 9.61D-01 WtEn= 3.93D-02
 Coeff-Com:  0.159D-01 0.122D+00 0.298D+00 0.564D+00
 Coeff-En:   0.000D+00 0.000D+00 0.163D+00 0.837D+00
 Coeff:      0.153D-01 0.117D+00 0.292D+00 0.575D+00
 Gap=     0.135 Goal=   None    Shift=    0.000
 RMSDP=2.62D-03 MaxDP=3.21D-01 DE=-9.99D-02 OVMax= 3.86D-02

 Cycle   5  Pass 1  IDiag  1:
 RMSU=  1.06D-03    CP:  8.69D-01  4.51D-01  7.01D-01  8.27D-01
 E= -974.455049370676     Delta-E=       -0.015875351470 Rises=F Damp=F
 DIIS: error= 1.11D-03 at cycle   5 NSaved=   5.
 NSaved= 5 IEnMin= 5 EnMin= -974.455049370676     IErMin= 5 ErrMin= 1.11D-03
 ErrMax= 1.11D-03 EMaxC= 1.00D-01 BMatC= 1.79D-03 BMatP= 2.07D-02
 IDIUse=3 WtCom= 9.89D-01 WtEn= 1.11D-02
 Coeff-Com:  0.114D-02 0.231D-01 0.131D+00 0.351D+00 0.494D+00
 Coeff-En:   0.000D+00 0.000D+00 0.000D+00 0.387D-01 0.961D+00
 Coeff:      0.113D-02 0.229D-01 0.129D+00 0.348D+00 0.499D+00
 Gap=     0.133 Goal=   None    Shift=    0.000
 RMSDP=1.09D-03 MaxDP=7.14D-02 DE=-1.59D-02 OVMax= 1.27D-02

 Cycle   6  Pass 1  IDiag  1:
 RMSU=  4.08D-04    CP:  8.68D-01  4.56D-01  7.07D-01  7.33D-01  4.88D-01
 E= -974.456503916862     Delta-E=       -0.001454546186 Rises=F Damp=F
 DIIS: error= 3.56D-04 at cycle   6 NSaved=   6.
 NSaved= 6 IEnMin= 6 EnMin= -974.456503916862     IErMin= 6 ErrMin= 3.56D-04
 ErrMax= 3.56D-04 EMaxC= 1.00D-01 BMatC= 2.11D-04 BMatP= 1.79D-03
 IDIUse=3 WtCom= 9.96D-01 WtEn= 3.56D-03
 Coeff-Com: -0.101D-02-0.126D-02 0.388D-01 0.131D+00 0.307D+00 0.525D+00
 Coeff-En:   0.000D+00 0.000D+00 0.000D+00 0.000D+00 0.100D+00 0.900D+00
 Coeff:     -0.101D-02-0.125D-02 0.386D-01 0.131D+00 0.306D+00 0.527D+00
 Gap=     0.134 Goal=   None    Shift=    0.000
 RMSDP=3.08D-04 MaxDP=3.44D-02 DE=-1.45D-03 OVMax= 4.44D-03

 Cycle   7  Pass 1  IDiag  1:
 RMSU=  1.61D-04    CP:  8.66D-01  4.59D-01  7.11D-01  7.49D-01  5.52D-01
                    CP:  8.44D-01
 E= -974.456681449376     Delta-E=       -0.000177532514 Rises=F Damp=F
 DIIS: error= 2.46D-04 at cycle   7 NSaved=   7.
 NSaved= 7 IEnMin= 7 EnMin= -974.456681449376     IErMin= 7 ErrMin= 2.46D-04
 ErrMax= 2.46D-04 EMaxC= 1.00D-01 BMatC= 2.74D-05 BMatP= 2.11D-04
 IDIUse=3 WtCom= 9.98D-01 WtEn= 2.46D-03
 Coeff-Com: -0.616D-03-0.238D-02 0.141D-01 0.527D-01 0.155D+00 0.344D+00
 Coeff-Com:  0.437D+00
 Coeff-En:   0.000D+00 0.000D+00 0.000D+00 0.000D+00 0.000D+00 0.636D-01
 Coeff-En:   0.936D+00
 Coeff:     -0.614D-03-0.238D-02 0.140D-01 0.526D-01 0.155D+00 0.343D+00
 Coeff:      0.438D+00
 Gap=     0.134 Goal=   None    Shift=    0.000
 RMSDP=1.45D-04 MaxDP=1.04D-02 DE=-1.78D-04 OVMax= 1.46D-03

 Cycle   8  Pass 1  IDiag  1:
 RMSU=  3.88D-05    CP:  8.67D-01  4.58D-01  7.10D-01  7.60D-01  5.62D-01
                    CP:  7.45D-01  6.07D-01
 E= -974.456704279455     Delta-E=       -0.000022830080 Rises=F Damp=F
 DIIS: error= 4.50D-05 at cycle   8 NSaved=   8.
 NSaved= 8 IEnMin= 8 EnMin= -974.456704279455     IErMin= 8 ErrMin= 4.50D-05
 ErrMax= 4.50D-05 EMaxC= 1.00D-01 BMatC= 1.98D-06 BMatP= 2.74D-05
 IDIUse=1 WtCom= 1.00D+00 WtEn= 0.00D+00
 Coeff-Com: -0.136D-03-0.138D-02 0.354D-02 0.140D-01 0.540D-01 0.138D+00
 Coeff-Com:  0.249D+00 0.543D+00
 Coeff:     -0.136D-03-0.138D-02 0.354D-02 0.140D-01 0.540D-01 0.138D+00
 Coeff:      0.249D+00 0.543D+00
 Gap=     0.134 Goal=   None    Shift=    0.000
 RMSDP=2.53D-05 MaxDP=1.83D-03 DE=-2.28D-05 OVMax= 3.59D-04

 Cycle   9  Pass 1  IDiag  1:
 RMSU=  1.16D-05    CP:  8.67D-01  4.57D-01  7.10D-01  7.60D-01  5.61D-01
                    CP:  7.51D-01  5.76D-01  9.69D-01
 E= -974.456705701171     Delta-E=       -0.000001421716 Rises=F Damp=F
 DIIS: error= 1.60D-05 at cycle   9 NSaved=   9.
 NSaved= 9 IEnMin= 9 EnMin= -974.456705701171     IErMin= 9 ErrMin= 1.60D-05
 ErrMax= 1.60D-05 EMaxC= 1.00D-01 BMatC= 2.60D-07 BMatP= 1.98D-06
 IDIUse=1 WtCom= 1.00D+00 WtEn= 0.00D+00
 Coeff-Com:  0.403D-04-0.496D-03 0.236D-03 0.762D-03 0.102D-01 0.328D-01
 Coeff-Com:  0.794D-01 0.306D+00 0.571D+00
 Coeff:      0.403D-04-0.496D-03 0.236D-03 0.762D-03 0.102D-01 0.328D-01
 Coeff:      0.794D-01 0.306D+00 0.571D+00
 Gap=     0.134 Goal=   None    Shift=    0.000
 RMSDP=1.26D-05 MaxDP=1.46D-03 DE=-1.42D-06 OVMax= 1.99D-04

 Cycle  10  Pass 1  IDiag  1:
 RMSU=  3.65D-06    CP:  8.66D-01  4.57D-01  7.10D-01  7.59D-01  5.63D-01
                    CP:  7.53D-01  5.79D-01  9.47D-01  7.68D-01
 E= -974.456705906619     Delta-E=       -0.000000205448 Rises=F Damp=F
 DIIS: error= 4.35D-06 at cycle  10 NSaved=  10.
 NSaved=10 IEnMin=10 EnMin= -974.456705906619     IErMin=10 ErrMin= 4.35D-06
 ErrMax= 4.35D-06 EMaxC= 1.00D-01 BMatC= 3.87D-08 BMatP= 2.60D-07
 IDIUse=1 WtCom= 1.00D+00 WtEn= 0.00D+00
 Coeff-Com:  0.409D-04-0.172D-03-0.186D-03-0.936D-03 0.739D-03 0.606D-02
 Coeff-Com:  0.223D-01 0.127D+00 0.349D+00 0.496D+00
 Coeff:      0.409D-04-0.172D-03-0.186D-03-0.936D-03 0.739D-03 0.606D-02
 Coeff:      0.223D-01 0.127D+00 0.349D+00 0.496D+00
 Gap=     0.134 Goal=   None    Shift=    0.000
 RMSDP=4.58D-06 MaxDP=2.38D-04 DE=-2.05D-07 OVMax= 5.79D-05

 Cycle  11  Pass 1  IDiag  1:
 RMSU=  1.58D-06    CP:  8.67D-01  4.57D-01  7.10D-01  7.59D-01  5.62D-01
                    CP:  7.55D-01  5.83D-01  9.58D-01  7.76D-01  7.09D-01
 E= -974.456705940000     Delta-E=       -0.000000033381 Rises=F Damp=F
 DIIS: error= 1.37D-06 at cycle  11 NSaved=  11.
 NSaved=11 IEnMin=11 EnMin= -974.456705940000     IErMin=11 ErrMin= 1.37D-06
 ErrMax= 1.37D-06 EMaxC= 1.00D-01 BMatC= 3.24D-09 BMatP= 3.87D-08
 IDIUse=1 WtCom= 1.00D+00 WtEn= 0.00D+00
 Coeff-Com:  0.177D-04-0.370D-04-0.113D-03-0.551D-03-0.711D-03-0.360D-03
 Coeff-Com:  0.270D-02 0.314D-01 0.118D+00 0.273D+00 0.576D+00
 Coeff:      0.177D-04-0.370D-04-0.113D-03-0.551D-03-0.711D-03-0.360D-03
 Coeff:      0.270D-02 0.314D-01 0.118D+00 0.273D+00 0.576D+00
 Gap=     0.134 Goal=   None    Shift=    0.000
 RMSDP=2.22D-06 MaxDP=2.35D-04 DE=-3.34D-08 OVMax= 3.68D-05

 Cycle  12  Pass 1  IDiag  1:
 RMSU=  5.11D-07    CP:  8.66D-01  4.57D-01  7.10D-01  7.59D-01  5.62D-01
                    CP:  7.55D-01  5.83D-01  9.61D-01  8.01D-01  7.49D-01
                    CP:  6.97D-01
 E= -974.456705942621     Delta-E=       -0.000000002621 Rises=F Damp=F
 DIIS: error= 6.24D-07 at cycle  12 NSaved=  12.
 NSaved=12 IEnMin=12 EnMin= -974.456705942621     IErMin=12 ErrMin= 6.24D-07
 ErrMax= 6.24D-07 EMaxC= 1.00D-01 BMatC= 7.02D-10 BMatP= 3.24D-09
 IDIUse=1 WtCom= 1.00D+00 WtEn= 0.00D+00
 Coeff-Com:  0.588D-05-0.126D-05-0.604D-04-0.275D-03-0.666D-03-0.124D-02
 Coeff-Com: -0.149D-02 0.352D-02 0.313D-01 0.116D+00 0.380D+00 0.473D+00
 Coeff:      0.588D-05-0.126D-05-0.604D-04-0.275D-03-0.666D-03-0.124D-02
 Coeff:     -0.149D-02 0.352D-02 0.313D-01 0.116D+00 0.380D+00 0.473D+00
 Gap=     0.134 Goal=   None    Shift=    0.000
 RMSDP=8.97D-07 MaxDP=9.26D-05 DE=-2.62D-09 OVMax= 1.35D-05

 Cycle  13  Pass 1  IDiag  1:
 RMSU=  2.10D-07    CP:  8.67D-01  4.57D-01  7.10D-01  7.59D-01  5.62D-01
                    CP:  7.54D-01  5.82D-01  9.65D-01  8.00D-01  7.68D-01
                    CP:  7.76D-01  5.84D-01
 E= -974.456705943344     Delta-E=       -0.000000000723 Rises=F Damp=F
 DIIS: error= 1.11D-07 at cycle  13 NSaved=  13.
 NSaved=13 IEnMin=13 EnMin= -974.456705943344     IErMin=13 ErrMin= 1.11D-07
 ErrMax= 1.11D-07 EMaxC= 1.00D-01 BMatC= 2.77D-11 BMatP= 7.02D-10
 IDIUse=1 WtCom= 1.00D+00 WtEn= 0.00D+00
 Coeff-Com:  0.464D-06 0.303D-05-0.120D-04-0.548D-04-0.202D-03-0.463D-03
 Coeff-Com: -0.925D-03-0.173D-02 0.759D-03 0.237D-01 0.113D+00 0.206D+00
 Coeff-Com:  0.659D+00
 Coeff:      0.464D-06 0.303D-05-0.120D-04-0.548D-04-0.202D-03-0.463D-03
 Coeff:     -0.925D-03-0.173D-02 0.759D-03 0.237D-01 0.113D+00 0.206D+00
 Coeff:      0.659D+00
 Gap=     0.134 Goal=   None    Shift=    0.000
 RMSDP=1.47D-07 MaxDP=1.20D-05 DE=-7.23D-10 OVMax= 5.12D-06

 Cycle  14  Pass 1  IDiag  1:
 RMSU=  5.67D-08    CP:  8.67D-01  4.57D-01  7.10D-01  7.59D-01  5.62D-01
                    CP:  7.54D-01  5.82D-01  9.65D-01  8.02D-01  7.68D-01
                    CP:  7.85D-01  6.33D-01  8.51D-01
 E= -974.456705943326     Delta-E=        0.000000000018 Rises=F Damp=F
 DIIS: error= 7.08D-08 at cycle  14 NSaved=  14.
 NSaved=14 IEnMin=13 EnMin= -974.456705943344     IErMin=14 ErrMin= 7.08D-08
 ErrMax= 7.08D-08 EMaxC= 1.00D-01 BMatC= 1.16D-11 BMatP= 2.77D-11
 IDIUse=1 WtCom= 1.00D+00 WtEn= 0.00D+00
 Coeff-Com: -0.517D-06 0.220D-05 0.101D-06 0.294D-06-0.472D-04-0.150D-03
 Coeff-Com: -0.436D-03-0.165D-02-0.411D-02-0.122D-02 0.192D-01 0.585D-01
 Coeff-Com:  0.428D+00 0.501D+00
 Coeff:     -0.517D-06 0.220D-05 0.101D-06 0.294D-06-0.472D-04-0.150D-03
 Coeff:     -0.436D-03-0.165D-02-0.411D-02-0.122D-02 0.192D-01 0.585D-01
 Coeff:      0.428D+00 0.501D+00
 Gap=     0.134 Goal=   None    Shift=    0.000
 RMSDP=5.69D-08 MaxDP=4.02D-06 DE= 1.82D-11 OVMax= 1.08D-06

 Cycle  15  Pass 1  IDiag  1:
 RMSU=  1.98D-08    CP:  8.67D-01  4.57D-01  7.10D-01  7.59D-01  5.62D-01
                    CP:  7.54D-01  5.82D-01  9.65D-01  8.02D-01  7.74D-01
                    CP:  7.86D-01  6.35D-01  9.00D-01  7.27D-01
 E= -974.456705943313     Delta-E=        0.000000000012 Rises=F Damp=F
 DIIS: error= 1.97D-08 at cycle  15 NSaved=  15.
 NSaved=15 IEnMin=13 EnMin= -974.456705943344     IErMin=15 ErrMin= 1.97D-08
 ErrMax= 1.97D-08 EMaxC= 1.00D-01 BMatC= 7.95D-13 BMatP= 1.16D-11
 IDIUse=1 WtCom= 1.00D+00 WtEn= 0.00D+00
 Coeff-Com: -0.336D-06 0.853D-06 0.163D-05 0.688D-05-0.318D-05-0.344D-04
 Coeff-Com: -0.158D-03-0.777D-03-0.256D-02-0.349D-02-0.179D-02 0.612D-02
 Coeff-Com:  0.177D+00 0.272D+00 0.554D+00
 Coeff:     -0.336D-06 0.853D-06 0.163D-05 0.688D-05-0.318D-05-0.344D-04
 Coeff:     -0.158D-03-0.777D-03-0.256D-02-0.349D-02-0.179D-02 0.612D-02
 Coeff:      0.177D+00 0.272D+00 0.554D+00
 Gap=     0.134 Goal=   None    Shift=    0.000
 RMSDP=1.92D-08 MaxDP=2.28D-06 DE= 1.23D-11 OVMax= 4.02D-07

 Cycle  16  Pass 1  IDiag  1:
 RMSU=  5.56D-09    CP:  8.67D-01  4.57D-01  7.10D-01  7.59D-01  5.62D-01
                    CP:  7.54D-01  5.82D-01  9.65D-01  8.02D-01  7.73D-01
                    CP:  7.88D-01  6.34D-01  9.14D-01  7.27D-01  7.14D-01
 E= -974.456705943309     Delta-E=        0.000000000004 Rises=F Damp=F
 DIIS: error= 7.51D-09 at cycle  16 NSaved=  16.
 NSaved=16 IEnMin=13 EnMin= -974.456705943344     IErMin=16 ErrMin= 7.51D-09
 ErrMax= 7.51D-09 EMaxC= 1.00D-01 BMatC= 9.00D-14 BMatP= 7.95D-13
 IDIUse=1 WtCom= 1.00D+00 WtEn= 0.00D+00
 Coeff-Com: -0.837D-07 0.151D-06 0.828D-06 0.324D-05 0.355D-05-0.213D-05
 Coeff-Com: -0.326D-04-0.192D-03-0.833D-03-0.165D-02-0.309D-02-0.525D-02
 Coeff-Com:  0.440D-01 0.763D-01 0.294D+00 0.597D+00
 Coeff:     -0.837D-07 0.151D-06 0.828D-06 0.324D-05 0.355D-05-0.213D-05
 Coeff:     -0.326D-04-0.192D-03-0.833D-03-0.165D-02-0.309D-02-0.525D-02
 Coeff:      0.440D-01 0.763D-01 0.294D+00 0.597D+00
 Gap=     0.134 Goal=   None    Shift=    0.000
 RMSDP=7.72D-09 MaxDP=6.43D-07 DE= 4.09D-12 OVMax= 1.13D-07

 SCF Done:  E(RB3LYP) =  -974.456705943     A.U. after   16 cycles
             Convg  =    0.7722D-08             -V/T =  2.0093
 KE= 9.654649988742D+02 PE=-5.568182139529D+03 EE= 1.977788750836D+03
 Leave Link  502 at Tue Jan 10 03:39:13 2012, MaxMem=  536870912 cpu:    3238.4
 (Enter /usr/local/gaussian/g09/l601.exe)
 Copying SCF densities to generalized density rwf, IOpCl= 0 IROHF=0.

 **********************************************************************

            Population analysis using the SCF density.

 **********************************************************************

 Orbital symmetries:
       Occupied  (A) (A) (A) (A) (A) (A) (A) (A) (A) (A) (A) (A)
                 (A) (A) (A) (A) (A) (A) (A) (A) (A) (A) (A) (A)
                 (A) (A) (A) (A) (A) (A) (A) (A) (A) (A) (A) (A)
                 (A) (A) (A) (A) (A) (A) (A) (A) (A) (A) (A) (A)
                 (A) (A) (A) (A) (A) (A) (A) (A) (A) (A) (A) (A)
                 (A) (A) (A) (A) (A) (A) (A) (A) (A) (A) (A) (A)
                 (A) (A) (A)
       Virtual   (A) (A) (A) (A) (A) (A) (A) (A) (A) (A) (A) (A)
                 (A) (A) (A) (A) (A) (A) (A) (A) (A) (A) (A) (A)
                 (A) (A) (A) (A) (A) (A) (A) (A) (A) (A) (A) (A)
                 (A) (A) (A) (A) (A) (A) (A) (A) (A) (A) (A) (A)
                 (A) (A) (A) (A) (A) (A) (A) (A) (A) (A) (A) (A)
                 (A) (A) (A) (A) (A) (A) (A) (A) (A) (A) (A) (A)
                 (A) (A) (A) (A) (A) (A) (A) (A) (A) (A) (A) (A)
                 (A) (A) (A) (A) (A) (A) (A) (A) (A) (A) (A) (A)
                 (A) (A) (A) (A) (A) (A) (A) (A) (A) (A) (A) (A)
                 (A) (A) (A) (A) (A) (A) (A) (A) (A) (A) (A) (A)
                 (A) (A) (A) (A) (A) (A) (A) (A) (A) (A) (A) (A)
                 (A) (A) (A) (A) (A) (A) (A) (A) (A) (A) (A) (A)
                 (A) (A) (A) (A) (A) (A) (A) (A) (A) (A) (A) (A)
                 (A) (A) (A) (A) (A) (A) (A) (A) (A) (A) (A) (A)
                 (A) (A) (A) (A) (A) (A) (A) (A) (A) (A) (A) (A)
                 (A) (A) (A) (A) (A) (A) (A) (A) (A) (A) (A) (A)
                 (A) (A) (A) (A) (A) (A) (A) (A) (A) (A) (A) (A)
                 (A) (A) (A) (A) (A) (A) (A) (A) (A) (A) (A) (A)
                 (A) (A) (A) (A) (A) (A) (A) (A) (A) (A) (A) (A)
                 (A) (A) (A) (A) (A) (A) (A) (A) (A) (A) (A) (A)
                 (A) (A) (A) (A) (A) (A) (A) (A) (A) (A) (A) (A)
                 (A) (A) (A) (A) (A) (A) (A) (A) (A) (A) (A) (A)
                 (A) (A) (A) (A) (A) (A) (A) (A) (A) (A) (A) (A)
                 (A) (A) (A) (A) (A) (A) (A) (A) (A) (A) (A) (A)
                 (A) (A) (A) (A) (A) (A) (A) (A) (A) (A) (A) (A)
                 (A) (A) (A) (A) (A) (A) (A) (A) (A) (A) (A) (A)
                 (A) (A) (A) (A) (A) (A) (A) (A) (A) (A) (A) (A)
                 (A) (A) (A) (A) (A) (A) (A) (A) (A) (A) (A) (A)
                 (A) (A) (A) (A) (A) (A) (A) (A) (A) (A) (A) (A)
                 (A) (A) (A) (A) (A) (A) (A) (A) (A) (A) (A) (A)
                 (A) (A) (A) (A) (A) (A) (A) (A) (A) (A) (A) (A)
                 (A) (A) (A) (A) (A) (A) (A) (A) (A) (A) (A) (A)
                 (A) (A) (A) (A) (A) (A) (A) (A) (A) (A)
 The electronic state is 1-A.
 Alpha  occ. eigenvalues --  -19.22739 -19.21268 -19.14946 -19.14724 -14.37971
 Alpha  occ. eigenvalues --  -10.33680 -10.33361 -10.27898 -10.25862 -10.24505
 Alpha  occ. eigenvalues --  -10.24246 -10.24095 -10.22606 -10.21886 -10.21719
 Alpha  occ. eigenvalues --  -10.21700 -10.21539 -10.21070 -10.21020 -10.20661
 Alpha  occ. eigenvalues --  -10.20444  -1.11506  -1.10906  -1.03199  -1.02578
 Alpha  occ. eigenvalues --   -0.98223  -0.88557  -0.85002  -0.84635  -0.79766
 Alpha  occ. eigenvalues --   -0.78421  -0.77775  -0.71101  -0.69660  -0.67609
 Alpha  occ. eigenvalues --   -0.65466  -0.64943  -0.64447  -0.61906  -0.58768
 Alpha  occ. eigenvalues --   -0.56865  -0.55086  -0.54107  -0.51188  -0.50248
 Alpha  occ. eigenvalues --   -0.48933  -0.48484  -0.47970  -0.46679  -0.46280
 Alpha  occ. eigenvalues --   -0.45734  -0.45391  -0.45188  -0.44063  -0.43820
 Alpha  occ. eigenvalues --   -0.43467  -0.42430  -0.41795  -0.41361  -0.40003
 Alpha  occ. eigenvalues --   -0.39197  -0.37862  -0.37155  -0.37032  -0.35728
 Alpha  occ. eigenvalues --   -0.35180  -0.34997  -0.34079  -0.33267  -0.32591
 Alpha  occ. eigenvalues --   -0.29193  -0.28566  -0.27610  -0.24953  -0.21050
 Alpha virt. eigenvalues --   -0.07658  -0.03308  -0.01778  -0.01703  -0.00850
 Alpha virt. eigenvalues --   -0.00726   0.00342   0.00740   0.00877   0.01172
 Alpha virt. eigenvalues --    0.02426   0.03156   0.03314   0.04077   0.04229
 Alpha virt. eigenvalues --    0.05178   0.05457   0.05544   0.06437   0.06471
 Alpha virt. eigenvalues --    0.06959   0.07194   0.07602   0.07956   0.08746
 Alpha virt. eigenvalues --    0.09309   0.09765   0.10051   0.10365   0.10494
 Alpha virt. eigenvalues --    0.10903   0.11213   0.11543   0.11868   0.12580
 Alpha virt. eigenvalues --    0.13272   0.13475   0.13673   0.14312   0.14907
 Alpha virt. eigenvalues --    0.15152   0.15324   0.16001   0.16206   0.16231
 Alpha virt. eigenvalues --    0.16628   0.17003   0.17575   0.18064   0.18402
 Alpha virt. eigenvalues --    0.18759   0.18868   0.19089   0.19527   0.19704
 Alpha virt. eigenvalues --    0.20017   0.20446   0.20985   0.21268   0.21386
 Alpha virt. eigenvalues --    0.21781   0.21996   0.22532   0.22687   0.23227
 Alpha virt. eigenvalues --    0.23257   0.23619   0.24100   0.24565   0.24755
 Alpha virt. eigenvalues --    0.25093   0.25615   0.25764   0.26302   0.26579
 Alpha virt. eigenvalues --    0.26852   0.27012   0.27731   0.28101   0.28683
 Alpha virt. eigenvalues --    0.28841   0.29366   0.29895   0.30182   0.30235
 Alpha virt. eigenvalues --    0.30589   0.30971   0.31413   0.31426   0.31700
 Alpha virt. eigenvalues --    0.32190   0.32429   0.32848   0.33354   0.33700
 Alpha virt. eigenvalues --    0.34138   0.34370   0.34851   0.35633   0.36292
 Alpha virt. eigenvalues --    0.36599   0.37327   0.37872   0.38539   0.39074
 Alpha virt. eigenvalues --    0.39258   0.39978   0.40383   0.40727   0.41315
 Alpha virt. eigenvalues --    0.42010   0.43086   0.43954   0.45204   0.46149
 Alpha virt. eigenvalues --    0.46628   0.47161   0.47807   0.48648   0.51397
 Alpha virt. eigenvalues --    0.52233   0.56118   0.57819   0.58976   0.63337
 Alpha virt. eigenvalues --    0.64309   0.64922   0.65728   0.66580   0.66875
 Alpha virt. eigenvalues --    0.67829   0.69128   0.69329   0.70015   0.71107
 Alpha virt. eigenvalues --    0.71681   0.72459   0.72605   0.73340   0.73779
 Alpha virt. eigenvalues --    0.74306   0.75989   0.76675   0.77504   0.78867
 Alpha virt. eigenvalues --    0.79123   0.79687   0.80020   0.80500   0.81348
 Alpha virt. eigenvalues --    0.82097   0.82646   0.82953   0.84288   0.85738
 Alpha virt. eigenvalues --    0.86859   0.87436   0.88317   0.89269   0.89990
 Alpha virt. eigenvalues --    0.91154   0.92173   0.93655   0.95094   0.95446
 Alpha virt. eigenvalues --    0.97379   0.97533   0.98880   0.99525   1.01540
 Alpha virt. eigenvalues --    1.01741   1.02674   1.04163   1.05223   1.08348
 Alpha virt. eigenvalues --    1.08546   1.10747   1.10899   1.11485   1.11875
 Alpha virt. eigenvalues --    1.12096   1.13285   1.13668   1.14473   1.15826
 Alpha virt. eigenvalues --    1.17479   1.18354   1.19298   1.20113   1.21531
 Alpha virt. eigenvalues --    1.22059   1.22303   1.22827   1.23941   1.25066
 Alpha virt. eigenvalues --    1.27183   1.27941   1.28649   1.29320   1.29964
 Alpha virt. eigenvalues --    1.30149   1.31667   1.32218   1.33503   1.34440
 Alpha virt. eigenvalues --    1.35543   1.36119   1.36704   1.37491   1.38769
 Alpha virt. eigenvalues --    1.38939   1.39975   1.41185   1.42620   1.43169
 Alpha virt. eigenvalues --    1.45910   1.46210   1.47595   1.49540   1.50992
 Alpha virt. eigenvalues --    1.54294   1.56336   1.57668   1.58495   1.59951
 Alpha virt. eigenvalues --    1.60696   1.62717   1.63794   1.64981   1.66099
 Alpha virt. eigenvalues --    1.66625   1.68594   1.70152   1.71506   1.73487
 Alpha virt. eigenvalues --    1.74019   1.74600   1.75289   1.76168   1.77074
 Alpha virt. eigenvalues --    1.78010   1.79422   1.80330   1.81138   1.81904
 Alpha virt. eigenvalues --    1.82095   1.84355   1.85247   1.85919   1.86357
 Alpha virt. eigenvalues --    1.87327   1.87683   1.88718   1.89380   1.90825
 Alpha virt. eigenvalues --    1.91875   1.92067   1.92398   1.93802   1.94108
 Alpha virt. eigenvalues --    1.95711   1.96148   1.97263   1.99176   2.00125
 Alpha virt. eigenvalues --    2.01356   2.02005   2.03493   2.03970   2.04918
 Alpha virt. eigenvalues --    2.06069   2.07910   2.09697   2.10292   2.11493
 Alpha virt. eigenvalues --    2.11910   2.13525   2.14828   2.15232   2.15887
 Alpha virt. eigenvalues --    2.16636   2.17580   2.18194   2.23186   2.24322
 Alpha virt. eigenvalues --    2.25236   2.25703   2.27858   2.28203   2.28993
 Alpha virt. eigenvalues --    2.29491   2.31043   2.32231   2.33427   2.34222
 Alpha virt. eigenvalues --    2.35376   2.37721   2.39263   2.39672   2.41531
 Alpha virt. eigenvalues --    2.42406   2.43101   2.45684   2.46168   2.46496
 Alpha virt. eigenvalues --    2.47995   2.49091   2.50363   2.51444   2.52227
 Alpha virt. eigenvalues --    2.53235   2.54367   2.56210   2.57161   2.58323
 Alpha virt. eigenvalues --    2.59480   2.60573   2.63358   2.63495   2.64405
 Alpha virt. eigenvalues --    2.65457   2.67024   2.67906   2.68728   2.70452
 Alpha virt. eigenvalues --    2.71566   2.72125   2.74655   2.75665   2.76188
 Alpha virt. eigenvalues --    2.77659   2.78079   2.79449   2.80023   2.81825
 Alpha virt. eigenvalues --    2.82854   2.84190   2.85480   2.86090   2.86947
 Alpha virt. eigenvalues --    2.88584   2.90126   2.92676   2.95668   2.96805
 Alpha virt. eigenvalues --    2.98744   3.01139   3.04346   3.07429   3.08818
 Alpha virt. eigenvalues --    3.10689   3.11715   3.17959   3.18556   3.23143
 Alpha virt. eigenvalues --    3.23643   3.26319   3.30436   3.32064   3.32354
 Alpha virt. eigenvalues --    3.33241   3.34494   3.35359   3.36514   3.47626
 Alpha virt. eigenvalues --    3.47737   3.48521   3.50165   3.51411   3.55058
 Alpha virt. eigenvalues --    3.56007   3.57814   3.67570   4.26774   4.28729
 Alpha virt. eigenvalues --    4.31498   4.33864   4.34918   4.38143   4.40145
 Alpha virt. eigenvalues --    4.42962   4.44283   4.46668   4.48377   4.49633
 Alpha virt. eigenvalues --    4.52604   4.60482   4.63594   4.65452   4.66424
 Alpha virt. eigenvalues --    4.72000   4.74084   4.90691   5.00071
     Gross orbital populations:
                           1
   1 1   O  1S          1.99224
   2        2S          0.90939
   3        2PX         1.03026
   4        2PY         0.89607
   5        2PZ         0.93807
   6        3S          1.08746
   7        3PX         0.51863
   8        3PY         0.54431
   9        3PZ         0.42696
  10        4S         -0.03971
  11        4PX         0.02071
  12        4PY         0.02422
  13        4PZ         0.02769
  14        5XX        -0.00934
  15        5YY        -0.01093
  16        5ZZ        -0.00202
  17        5XY         0.00364
  18        5XZ         0.00727
  19        5YZ         0.00655
  20 2   C  1S          1.99259
  21        2S          0.72305
  22        2PX         0.73213
  23        2PY         0.54921
  24        2PZ         0.67218
  25        3S          0.35320
  26        3PX         0.09585
  27        3PY         0.18298
  28        3PZ         0.01907
  29        4S         -0.05624
  30        4PX        -0.04587
  31        4PY         0.00835
  32        4PZ         0.02433
  33        5XX         0.00982
  34        5YY        -0.02313
  35        5ZZ         0.01932
  36        5XY         0.01121
  37        5XZ         0.03342
  38        5YZ         0.02911
  39 3   O  1S          1.99202
  40        2S          0.90073
  41        2PX         1.03609
  42        2PY         1.04046
  43        2PZ         0.85687
  44        3S          0.99008
  45        3PX         0.57257
  46        3PY         0.62133
  47        3PZ         0.41839
  48        4S         -0.09798
  49        4PX         0.01095
  50        4PY         0.02181
  51        4PZ         0.00467
  52        5XX        -0.01176
  53        5YY        -0.00827
  54        5ZZ         0.00503
  55        5XY         0.00354
  56        5XZ         0.00892
  57        5YZ         0.00383
  58 4   C  1S          1.99231
  59        2S          0.70056
  60        2PX         0.75788
  61        2PY         0.74514
  62        2PZ         0.62971
  63        3S          0.54681
  64        3PX         0.11923
  65        3PY         0.16012
  66        3PZ         0.43242
  67        4S          0.02364
  68        4PX         0.17521
  69        4PY         0.23317
  70        4PZ         0.06342
  71        5XX         0.00350
  72        5YY         0.00438
  73        5ZZ        -0.02425
  74        5XY         0.01144
  75        5XZ         0.00452
  76        5YZ         0.00446
  77 5   C  1S          1.99247
  78        2S          0.71626
  79        2PX         0.76275
  80        2PY         0.76819
  81        2PZ         0.53083
  82        3S          0.54861
  83        3PX         0.21193
  84        3PY         0.24199
  85        3PZ         0.36032
  86        4S         -0.44977
  87        4PX        -0.25595
  88        4PY        -0.00296
  89        4PZ         0.03078
  90        5XX         0.00089
  91        5YY         0.00068
  92        5ZZ        -0.02559
  93        5XY         0.01107
  94        5XZ         0.00778
  95        5YZ         0.00330
  96 6   C  1S          1.99233
  97        2S          0.69968
  98        2PX         0.75335
  99        2PY         0.75972
 100        2PZ         0.62588
 101        3S          0.48882
 102        3PX         0.07347
 103        3PY         0.09109
 104        3PZ         0.40994
 105        4S         -1.80049
 106        4PX        -0.07511
 107        4PY        -0.05440
 108        4PZ         0.00978
 109        5XX         0.00383
 110        5YY         0.00254
 111        5ZZ        -0.02475
 112        5XY         0.01195
 113        5XZ         0.00584
 114        5YZ         0.00678
 115 7   C  1S          1.99268
 116        2S          0.70766
 117        2PX         0.70266
 118        2PY         0.70281
 119        2PZ         0.61809
 120        3S          0.50795
 121        3PX         0.06214
 122        3PY         0.01976
 123        3PZ         0.35960
 124        4S          0.94531
 125        4PX         0.18810
 126        4PY         0.73508
 127        4PZ         0.01807
 128        5XX         0.00466
 129        5YY         0.00361
 130        5ZZ        -0.02694
 131        5XY         0.02256
 132        5XZ         0.01075
 133        5YZ         0.00948
 134 8   O  1S          1.99205
 135        2S          0.88463
 136        2PX         0.84633
 137        2PY         1.01255
 138        2PZ         1.05006
 139        3S          1.14330
 140        3PX         0.42455
 141        3PY         0.56093
 142        3PZ         0.65174
 143        4S         -0.04123
 144        4PX        -0.02566
 145        4PY        -0.06352
 146        4PZ         0.01696
 147        5XX         0.01119
 148        5YY        -0.01033
 149        5ZZ        -0.02026
 150        5XY         0.00912
 151        5XZ         0.00497
 152        5YZ         0.00381
 153 9   C  1S          1.99287
 154        2S          0.71887
 155        2PX         0.64194
 156        2PY         0.76045
 157        2PZ         0.53708
 158        3S          0.32724
 159        3PX        -0.05059
 160        3PY         0.03875
 161        3PZ         0.26019
 162        4S          0.28822
 163        4PX        -0.04912
 164        4PY         0.05576
 165        4PZ         0.01396
 166        5XX         0.02334
 167        5YY         0.01790
 168        5ZZ        -0.03104
 169        5XY         0.02883
 170        5XZ         0.01942
[...]
 173         V                 0.347658          1.331494
 174         V                 0.350522          1.050713
 175         V                 0.356691          1.443492
 176         V                 0.359576          1.162486
 177         V                 0.369537          1.233103
 178         V                 0.373712          1.138736
 179         V                 0.384149          1.528790
 180         V                 0.389660          1.147998
 181         V                 0.396932          0.968004
 182         V                 0.397943          1.182590
 183         V                 0.403513          1.362361
 184         V                 0.406570          1.669846
 185         V                 0.412363          1.511607
 186         V                 0.413793          1.698966
 187         V                 0.427491          1.639322
 188         V                 0.436662          1.696907
 189         V                 0.438238          1.350350
 190         V                 0.446722          1.586838
 191         V                 0.455617          1.191251
 192         V                 0.460467          1.515486
 193         V                 0.476086          1.773735
 194         V                 0.485049          1.957459
 195         V                 0.490448          2.339667
 196         V                 0.523306          2.105977
 197         V                 0.534553          1.552313
 198         V                 0.574438          2.746859
 199         V                 0.588139          2.406250
 200         V                 0.594049          2.309817
 201         V                 0.638222          2.239999
 202         V                 0.649843          2.356027
 203         V                 0.650097          2.091044
 204         V                 0.655683          2.395678
 205         V                 0.666509          2.262989
 206         V                 0.668953          2.162883
 207         V                 0.675351          2.301945
 208         V                 0.684564          2.492532
 209         V                 0.697810          2.229790
 210         V                 0.705902          2.292653
 211         V                 0.707253          2.289377
 212         V                 0.719076          2.278880
 213         V                 0.721755          2.488519
 214         V                 0.725435          2.419601
 215         V                 0.734201          2.441255
 216         V                 0.747968          2.239316
 217         V                 0.754416          2.297438
 218         V                 0.757621          2.400567
 219         V                 0.765584          2.385231
 220         V                 0.768420          2.472480
 221         V                 0.785773          2.340596
 222         V                 0.789163          2.326978
 223         V                 0.793793          2.315710
 224         V                 0.801897          2.470915
 225         V                 0.811526          2.351439
 226         V                 0.816653          2.370582
 227         V                 0.823244          2.292895
 228         V                 0.830463          2.435891
 229         V                 0.845793          2.329090
 230         V                 0.851323          2.366225
 231         V                 0.852977          2.397490
 232         V                 0.871881          2.325202
 233         V                 0.882262          2.413344
 234         V                 0.889905          2.355514
 235         V                 0.891548          2.332735
 236         V                 0.906078          2.392358
 237         V                 0.912313          2.418328
 238         V                 0.930727          2.447316
 239         V                 0.936574          2.385292
 240         V                 0.945178          2.458037
 241         V                 0.958053          2.480986
 242         V                 0.969931          2.252625
 243         V                 0.985764          2.321483
 244         V                 1.000095          2.475046
 245         V                 1.007361          2.624991
 246         V                 1.012949          2.471939
 247         V                 1.024829          2.559036
 248         V                 1.037082          2.593058
 249         V                 1.047999          2.321693
 250         V                 1.069547          2.427352
 251         V                 1.086198          2.453818
 252         V                 1.093503          2.419654
 253         V                 1.100636          2.493036
 254         V                 1.104593          2.438989
 255         V                 1.112277          2.540781
 256         V                 1.122240          2.476473
 257         V                 1.125767          2.489101
 258         V                 1.136016          2.420077
 259         V                 1.145547          2.658024
 260         V                 1.147773          2.521048
 261         V                 1.157796          2.460872
 262         V                 1.162808          2.380915
 263         V                 1.183430          2.446243
 264         V                 1.199360          2.634017
 265         V                 1.202133          2.735263
 266         V                 1.206808          2.863974
 267         V                 1.217135          2.512870
 268         V                 1.223851          2.673966
 269         V                 1.226831          2.948724
 270         V                 1.242312          2.540348
 271         V                 1.252397          2.807647
 272         V                 1.265209          2.603808
 273         V                 1.285031          2.978986
 274         V                 1.288432          2.564583
 275         V                 1.291690          2.826579
 276         V                 1.303064          2.680785
 277         V                 1.305363          3.185040
 278         V                 1.312084          2.764839
 279         V                 1.320470          2.751785
 280         V                 1.336886          2.767591
 281         V                 1.348662          2.858429
 282         V                 1.351672          3.100693
 283         V                 1.354632          3.047603
 284         V                 1.358422          2.918165
 285         V                 1.381531          2.829111
 286         V                 1.383252          2.709157
 287         V                 1.394232          2.801842
 288         V                 1.399522          2.808903
 289         V                 1.408171          2.797773
 290         V                 1.421179          2.751902
 291         V                 1.430697          2.638188
 292         V                 1.453708          2.759406
 293         V                 1.454694          2.882417
 294         V                 1.484132          3.144357
 295         V                 1.497191          2.793883
 296         V                 1.507574          2.719432
 297         V                 1.537078          2.833597
 298         V                 1.548922          2.757118
 299         V                 1.567445          2.849113
 300         V                 1.578776          2.697338
 301         V                 1.589824          2.700527
 302         V                 1.610848          2.834002
 303         V                 1.619136          2.803916
 304         V                 1.628255          2.905924
 305         V                 1.652798          2.833271
 306         V                 1.653775          2.914597
 307         V                 1.679437          2.888077
 308         V                 1.690576          2.931590
 309         V                 1.698929          2.935973
 310         V                 1.706911          2.938744
 311         V                 1.724642          2.969798
 312         V                 1.730968          2.884806
 313         V                 1.736791          3.015137
 314         V                 1.743548          3.088356
 315         V                 1.765395          3.112270
 316         V                 1.767286          3.137260
 317         V                 1.775627          3.034145
 318         V                 1.792619          2.983398
 319         V                 1.796598          3.156791
 320         V                 1.809381          3.129159
 321         V                 1.812636          3.007551
 322         V                 1.822846          3.234552
 323         V                 1.827257          3.219382
 324         V                 1.839422          3.142872
 325         V                 1.849598          3.209313
 326         V                 1.858855          3.348123
 327         V                 1.874311          3.268993
 328         V                 1.883929          3.194652
 329         V                 1.888651          3.142534
 330         V                 1.894255          3.363941
 331         V                 1.899300          3.195096
 332         V                 1.909696          3.351292
 333         V                 1.919436          3.270873
 334         V                 1.924325          3.382570
 335         V                 1.934438          3.390835
 336         V                 1.943110          3.374456
 337         V                 1.962185          3.228873
 338         V                 1.974937          3.449616
 339         V                 1.976812          3.432009
 340         V                 1.994064          3.386770
 341         V                 1.998933          3.300528
 342         V                 2.014910          3.281482
 343         V                 2.029514          3.405613
 344         V                 2.041216          3.421578
 345         V                 2.050352          3.369574
 346         V                 2.060382          3.411522
 347         V                 2.068621          3.318527
 348         V                 2.089253          3.396698
 349         V                 2.092788          3.330942
 350         V                 2.096582          3.462327
 351         V                 2.102789          3.448446
 352         V                 2.115810          3.480594
 353         V                 2.123355          3.327199
 354         V                 2.135218          3.436487
 355         V                 2.149214          3.439132
 356         V                 2.154497          3.595673
 357         V                 2.170640          3.421215
 358         V                 2.184052          3.517060
 359         V                 2.202813          3.475816
 360         V                 2.227142          3.508718
 361         V                 2.242824          3.438304
 362         V                 2.248069          3.354160
 363         V                 2.257124          3.597667
 364         V                 2.268509          3.460210
 365         V                 2.279089          3.583994
 366         V                 2.286015          3.494497
 367         V                 2.298308          3.556295
 368         V                 2.308792          3.534301
 369         V                 2.336789          3.537403
 370         V                 2.339733          3.527838
 371         V                 2.341485          3.529069
 372         V                 2.350577          3.547038
 373         V                 2.380626          3.599524
 374         V                 2.387012          3.745766
 375         V                 2.401786          3.795685
 376         V                 2.417469          3.624501
 377         V                 2.425668          3.658806
 378         V                 2.439509          3.762757
 379         V                 2.447527          3.641883
 380         V                 2.459342          3.746000
 381         V                 2.477263          3.638266
 382         V                 2.482675          3.778862
 383         V                 2.490385          3.655186
 384         V                 2.495753          3.867923
 385         V                 2.510513          3.775278
 386         V                 2.520756          3.732710
 387         V                 2.524863          3.749153
 388         V                 2.534649          3.676040
 389         V                 2.552536          3.703394
 390         V                 2.567999          3.775417
 391         V                 2.573811          3.787981
 392         V                 2.580933          3.816725
 393         V                 2.603937          3.914482
 394         V                 2.621903          3.883347
 395         V                 2.637971          3.936526
 396         V                 2.650958          3.980910
 397         V                 2.656944          3.961126
 398         V                 2.665483          4.027345
 399         V                 2.670010          3.837625
 400         V                 2.683963          3.997172
 401         V                 2.707083          3.976342
 402         V                 2.713180          4.015379
 403         V                 2.723466          4.030024
 404         V                 2.735905          4.053097
 405         V                 2.744181          4.127880
 406         V                 2.757193          4.066022
 407         V                 2.759836          4.049824
 408         V                 2.776736          4.068577
 409         V                 2.787455          4.011762
 410         V                 2.802769          4.113714
 411         V                 2.816528          4.164244
 412         V                 2.832785          4.211097
 413         V                 2.835069          4.251410
 414         V                 2.844229          4.265097
 415         V                 2.854320          4.162434
 416         V                 2.861700          4.329403
 417         V                 2.882677          4.084848
 418         V                 2.888625          4.301777
 419         V                 2.898734          4.096324
 420         V                 2.928613          4.499045
 421         V                 2.958477          4.241991
 422         V                 2.982163          4.451236
 423         V                 3.015111          4.714446
 424         V                 3.039269          4.655017
 425         V                 3.081180          4.734795
 426         V                 3.103748          4.771610
 427         V                 3.120207          4.796859
 428         V                 3.145457          4.975497
 429         V                 3.175840          4.958469
 430         V                 3.225617          5.141514
 431         V                 3.248964          5.088479
 432         V                 3.264771          5.193198
 433         V                 3.272184          5.172861
 434         V                 3.300354          4.955716
 435         V                 3.307567          4.999549
 436         V                 3.321132          4.982919
 437         V                 3.333831          4.989193
 438         V                 3.346997          5.035615
 439         V                 3.350130          5.023499
 440         V                 3.368220          5.125694
 441         V                 3.458998          5.057515
 442         V                 3.474142          5.130394
 443         V                 3.481754          5.133414
 444         V                 3.508264          5.167179
 445         V                 3.515100          5.751373
 446         V                 3.537918          5.304576
 447         V                 3.554256          5.175076
 448         V                 3.568051          5.353965
 449         V                 3.678751          5.523431
 450         V                 4.236356         10.869936
 451         V                 4.262992         10.560567
 452         V                 4.282364         10.735701
 453         V                 4.332377         10.610278
 454         V                 4.353237         10.526737
 455         V                 4.387043         10.587690
 456         V                 4.399062         10.481712
 457         V                 4.430199         11.113377
 458         V                 4.443885         10.419577
 459         V                 4.464682         10.776648
 460         V                 4.485155         10.519569
 461         V                 4.509044         11.395362
 462         V                 4.546497         10.704386
 463         V                 4.594803         10.934615
 464         V                 4.646160         11.094409
 465         V                 4.659652         10.764326
 466         V                 4.665079         10.669564
 467         V                 4.696592         10.531540
 468         V                 4.741945         10.528909
 469         V                 4.908005         10.665273
 470         V                 5.015079         13.002852
 Total kinetic energy from orbitals= 9.654343918052D+02
 No NMR shielding tensors so no spin-rotation constants.
 Leave Link  601 at Tue Jan 10 06:54:53 2012, MaxMem=  536870912 cpu:       6.9
 (Enter /usr/local/gaussian/g09/l9999.exe)
 1\1\GINC-CL224\FOpt\RB3LYP\6-31+G(d,p)\C16H15N1O4\JCOLE\10-Jan-2012\0\
 \#p b3lyp/6-31+g(d,p) opt pop=full\\c343\\0,1\O,-4.919044886,1.2338387
 726,-0.7232325334\C,-3.8783935068,1.3792402965,-0.1346077697\O,-3.3231
 126632,0.3270694926,0.5450283878\C,-3.0682523556,2.6383981273,-0.13272
 41917\C,-1.7324201067,2.6256066974,-0.4398640482\C,-0.9774002623,3.822
 354386,-0.5758965679\C,-1.6466106064,5.0495549271,-0.3822176931\O,-2.9
 732670848,5.0608349092,-0.0519049601\C,-3.7566211729,3.9083994914,0.10
 69946707\O,-4.9012640833,4.0678009173,0.4560940972\C,-1.0178746327,6.2
 83749677,-0.5204280507\C,0.3612881406,6.3009897104,-0.8621024832\C,1.0
 710758032,5.0665389357,-1.0418750397\C,0.3920698477,3.8726020266,-0.91
 33888734\C,2.5425233421,5.1063688625,-1.3840005583\C,2.842825117,6.333
 0113652,-2.2490953062\C,2.3940276263,7.593964649,-1.5179657153\N,1.019
 7397274,7.4992864003,-1.0187993276\C,0.3678077322,8.7874222295,-0.7719
 671276\C,-0.8131124514,8.6633842065,0.1840571954\C,-1.772375352,7.5741
 451174,-0.3011137135\H,-2.5942977484,0.6371949596,1.1018783206\H,-1.23
 01601371,1.6772448117,-0.6242817488\H,0.9262075213,2.9383597907,-1.072
 5427626\H,3.1449777562,5.1599046756,-0.4648817599\H,2.8330471667,4.183
 001774,-1.8958410097\H,3.9119252603,6.4109887655,-2.4725156261\H,2.311
 5522383,6.2494632701,-3.2049896472\H,2.4444476565,8.4571608541,-2.1937
 132846\H,3.0751586663,7.806403962,-0.6781130664\H,0.0375636853,9.22291
 57367,-1.7293244941\H,1.1221942323,9.466639305,-0.3559332586\H,-1.3218
 900689,9.6303624204,0.2528814234\H,-0.44748033,8.4140897219,1.18775742
 75\H,-2.2547230494,7.8936471216,-1.2362884127\H,-2.5802310219,7.414061
 6337,0.4172175076\\Version=AM64L-G09RevA.02\State=1-A\HF=-974.4697029\
 RMSD=2.432e-09\RMSF=1.811e-05\Dipole=4.4640162,2.231314,-0.2362848\Qua
 drupole=-13.75949,6.9873724,6.7721176,-12.1522999,-0.7559087,-3.516083
 3\PG=C01 [X(C16H15N1O4)]\\@


 GOD GAVE US TWO ENDS... ONE TO SIT ON...    
 AND THE OTHER TO THINK WITH...              
 YOUR SUCCESS DEPENDS UPON WHICH END YOU     
 USE THE MOST...                             
                                             
 IT'S A CASE OF HEADS YOU WIN TAILS YOU LOSE.
          SOURCE UNKNOWN(IT'S JUST AS WELL.) 
 Job cpu time:  0 days  3 hours 12 minutes  1.2 seconds.
 File lengths (MBytes):  RWF=    142 Int=      0 D2E=      0 Chk=     17 Scr=      1
 Normal termination of Gaussian 09 at Tue Jan 10 06:55:00 2012.
