 Entering Gaussian System, Link 0=g09
 Initial command:
 /usr/local/gaussian/g09/l1.exe /globalscratch/jcole/Gau-9330.inp -scrdir=/globalscratch/jcole/
 Entering Link 1 = /usr/local/gaussian/g09/l1.exe PID=      9337.
  
 Copyright (c) 1988,1990,1992,1993,1995,1998,2003,2009, Gaussian, Inc.
                  All Rights Reserved.
  
 This is part of the Gaussian(R) 09 program.  It is based on
 the Gaussian(R) 03 system (copyright 2003, Gaussian, Inc.),
 the Gaussian(R) 98 system (copyright 1998, Gaussian, Inc.),
 the Gaussian(R) 94 system (copyright 1995, Gaussian, Inc.),
 the Gaussian 92(TM) system (copyright 1992, Gaussian, Inc.),
 the Gaussian 90(TM) system (copyright 1990, Gaussian, Inc.),
 the Gaussian 88(TM) system (copyright 1988, Gaussian, Inc.),
 the Gaussian 86(TM) system (copyright 1986, Carnegie Mellon
 University), and the Gaussian 82(TM) system (copyright 1983,
 Carnegie Mellon University). Gaussian is a federally registered
 trademark of Gaussian, Inc.
  
 This software contains proprietary and confidential information,
 including trade secrets, belonging to Gaussian, Inc.
  
 This software is provided under written license and may be
 used, copied, transmitted, or stored only in accord with that
 written license.
  
 The following legend is applicable only to US Government
 contracts under FAR:
  
                    RESTRICTED RIGHTS LEGEND
  
 Use, reproduction and disclosure by the US Government is
 subject to restrictions as set forth in subparagraphs (a)
 and (c) of the Commercial Computer Software - Restricted
 Rights clause in FAR 52.227-19.
  
 Gaussian, Inc.
 340 Quinnipiac St., Bldg. 40, Wallingford CT 06492
  
  
 ---------------------------------------------------------------
 Warning -- This program may not be used in any manner that
 competes with the business of Gaussian, Inc. or will provide
 assistance to any competitor of Gaussian, Inc.  The licensee
 of this program is prohibited from giving any competitor of
 Gaussian, Inc. access to this program.  By using this program,
 the user acknowledges that Gaussian, Inc. is engaged in the
 business of creating and licensing software in the field of
 computational chemistry and represents and warrants to the
 licensee that it is not a competitor of Gaussian, Inc. and that
 it will not use this program in any manner prohibited above.
 ---------------------------------------------------------------
  

 Cite this work as:
 Gaussian 09, Revision A.02,
 M. J. Frisch, G. W. Trucks, H. B. Schlegel, G. E. Scuseria, 
 M. A. Robb, J. R. Cheeseman, G. Scalmani, V. Barone, B. Mennucci, 
 G. A. Petersson, H. Nakatsuji, M. Caricato, X. Li, H. P. Hratchian, 
 A. F. Izmaylov, J. Bloino, G. Zheng, J. L. Sonnenberg, M. Hada, 
 M. Ehara, K. Toyota, R. Fukuda, J. Hasegawa, M. Ishida, T. Nakajima, 
 Y. Honda, O. Kitao, H. Nakai, T. Vreven, J. A. Montgomery, Jr., 
 J. E. Peralta, F. Ogliaro, M. Bearpark, J. J. Heyd, E. Brothers, 
 K. N. Kudin, V. N. Staroverov, R. Kobayashi, J. Normand, 
 K. Raghavachari, A. Rendell, J. C. Burant, S. S. Iyengar, J. Tomasi, 
 M. Cossi, N. Rega, J. M. Millam, M. Klene, J. E. Knox, J. B. Cross, 
 V. Bakken, C. Adamo, J. Jaramillo, R. Gomperts, R. E. Stratmann, 
 O. Yazyev, A. J. Austin, R. Cammi, C. Pomelli, J. W. Ochterski, 
 R. L. Martin, K. Morokuma, V. G. Zakrzewski, G. A. Voth, 
 P. Salvador, J. J. Dannenberg, S. Dapprich, A. D. Daniels, 
 O. Farkas, J. B. Foresman, J. V. Ortiz, J. Cioslowski, 
 and D. J. Fox, Gaussian, Inc., Wallingford CT, 2009.
 
 ******************************************
 Gaussian 09:  AM64L-G09RevA.02 11-Jun-2009
                16-Jan-2012 
 ******************************************
 %nprocshared=4
 Will use up to    4 processors via shared memory.
 %mem=4GB
 %chk=tddft_c343.chk
 Default route:  MaxDisk=200GB
 ---------------------------------------------------------------
 #p b3lyp/6-31+g(d,p) td(root=1,nstates=3) geom=check guess=read
 ---------------------------------------------------------------
 1/29=2,38=1/1;
 2/12=2,40=1/2;
 3/5=1,6=6,7=111,11=2,14=-4,16=1,25=1,30=1,74=-5,116=-2/1,2,8,3;
 4/5=1/1;
 5/5=2,38=6/2;
 8/6=1,10=2,107=1,108=3/1;
 9/8=1,41=3,42=1/14;
 6/7=2,8=2,9=2,10=2/1;
 99/5=1,9=1/99;
 Leave Link    1 at Mon Jan 16 06:49:38 2012, MaxMem=  536870912 cpu:       4.0
 (Enter /usr/local/gaussian/g09/l101.exe)
 ----
 c343
 ----
 Redundant internal coordinates taken from checkpoint file:
 tddft_c343.chk
 Charge =  0 Multiplicity = 1
 O,0,-4.919044886,1.2338387726,-0.7232325334
 C,0,-3.8783935068,1.3792402965,-0.1346077697
 O,0,-3.3231126632,0.3270694926,0.5450283878
 C,0,-3.0682523556,2.6383981273,-0.1327241917
 C,0,-1.7324201067,2.6256066974,-0.4398640482
 C,0,-0.9774002623,3.822354386,-0.5758965679
 C,0,-1.6466106064,5.0495549271,-0.3822176931
 O,0,-2.9732670848,5.0608349092,-0.0519049601
 C,0,-3.7566211729,3.9083994914,0.1069946707
 O,0,-4.9012640833,4.0678009173,0.4560940972
 C,0,-1.0178746327,6.283749677,-0.5204280507
 C,0,0.3612881406,6.3009897104,-0.8621024832
 C,0,1.0710758032,5.0665389357,-1.0418750397
 C,0,0.3920698477,3.8726020266,-0.9133888734
 C,0,2.5425233421,5.1063688625,-1.3840005583
 C,0,2.842825117,6.3330113652,-2.2490953062
 C,0,2.3940276263,7.593964649,-1.5179657153
 N,0,1.0197397274,7.4992864003,-1.0187993276
 C,0,0.3678077322,8.7874222295,-0.7719671276
 C,0,-0.8131124514,8.6633842065,0.1840571954
 C,0,-1.772375352,7.5741451174,-0.3011137135
 H,0,-2.5942977484,0.6371949596,1.1018783206
 H,0,-1.2301601371,1.6772448117,-0.6242817488
 H,0,0.9262075213,2.9383597907,-1.0725427626
 H,0,3.1449777562,5.1599046756,-0.4648817599
 H,0,2.8330471667,4.183001774,-1.8958410097
 H,0,3.9119252603,6.4109887655,-2.4725156261
 H,0,2.3115522383,6.2494632701,-3.2049896472
 H,0,2.4444476565,8.4571608541,-2.1937132846
 H,0,3.0751586663,7.806403962,-0.6781130664
 H,0,0.0375636853,9.2229157367,-1.7293244941
 H,0,1.1221942323,9.466639305,-0.3559332586
 H,0,-1.3218900689,9.6303624204,0.2528814234
 H,0,-0.44748033,8.4140897219,1.1877574275
 H,0,-2.2547230494,7.8936471216,-1.2362884127
 H,0,-2.5802310219,7.4140616337,0.4172175076
 Recover connectivity data from disk.
                    Isotopes and Nuclear Properties:
 (Nuclear quadrupole moments (NQMom) in fm**2, nuclear magnetic moments (NMagM)
  in nuclear magnetons)

  Atom         1           2           3           4           5           6           7           8           9          10
 IAtWgt=          16          12          16          12          12          12          12          16          12          16
 AtmWgt=  15.9949146  12.0000000  15.9949146  12.0000000  12.0000000  12.0000000  12.0000000  15.9949146  12.0000000  15.9949146
 NucSpn=           0           0           0           0           0           0           0           0           0           0
 AtZEff=  -5.6000000  -3.6000000  -5.6000000  -3.6000000  -3.6000000  -3.6000000  -3.6000000  -5.6000000  -3.6000000  -5.6000000
 NQMom=    0.0000000   0.0000000   0.0000000   0.0000000   0.0000000   0.0000000   0.0000000   0.0000000   0.0000000   0.0000000
 NMagM=    0.0000000   0.0000000   0.0000000   0.0000000   0.0000000   0.0000000   0.0000000   0.0000000   0.0000000   0.0000000

  Atom        11          12          13          14          15          16          17          18          19          20
 IAtWgt=          12          12          12          12          12          12          12          14          12          12
 AtmWgt=  12.0000000  12.0000000  12.0000000  12.0000000  12.0000000  12.0000000  12.0000000  14.0030740  12.0000000  12.0000000
 NucSpn=           0           0           0           0           0           0           0           2           0           0
 AtZEff=  -3.6000000  -3.6000000  -3.6000000  -3.6000000  -3.6000000  -3.6000000  -3.6000000  -4.5500000  -3.6000000  -3.6000000
 NQMom=    0.0000000   0.0000000   0.0000000   0.0000000   0.0000000   0.0000000   0.0000000   2.0440000   0.0000000   0.0000000
 NMagM=    0.0000000   0.0000000   0.0000000   0.0000000   0.0000000   0.0000000   0.0000000   0.4037610   0.0000000   0.0000000

  Atom        21          22          23          24          25          26          27          28          29          30
 IAtWgt=          12           1           1           1           1           1           1           1           1           1
 AtmWgt=  12.0000000   1.0078250   1.0078250   1.0078250   1.0078250   1.0078250   1.0078250   1.0078250   1.0078250   1.0078250
 NucSpn=           0           1           1           1           1           1           1           1           1           1
 AtZEff=  -3.6000000  -1.0000000  -1.0000000  -1.0000000  -1.0000000  -1.0000000  -1.0000000  -1.0000000  -1.0000000  -1.0000000
 NQMom=    0.0000000   0.0000000   0.0000000   0.0000000   0.0000000   0.0000000   0.0000000   0.0000000   0.0000000   0.0000000
 NMagM=    0.0000000   2.7928460   2.7928460   2.7928460   2.7928460   2.7928460   2.7928460   2.7928460   2.7928460   2.7928460

  Atom        31          32          33          34          35          36
 IAtWgt=           1           1           1           1           1           1
 AtmWgt=   1.0078250   1.0078250   1.0078250   1.0078250   1.0078250   1.0078250
 NucSpn=           1           1           1           1           1           1
 AtZEff=  -1.0000000  -1.0000000  -1.0000000  -1.0000000  -1.0000000  -1.0000000
 NQMom=    0.0000000   0.0000000   0.0000000   0.0000000   0.0000000   0.0000000
 NMagM=    2.7928460   2.7928460   2.7928460   2.7928460   2.7928460   2.7928460
 Leave Link  101 at Mon Jan 16 06:49:39 2012, MaxMem=  536870912 cpu:       1.1
 (Enter /usr/local/gaussian/g09/l202.exe)
                          Input orientation:                          
 ---------------------------------------------------------------------
 Center     Atomic      Atomic             Coordinates (Angstroms)
 Number     Number       Type             X           Y           Z
 ---------------------------------------------------------------------
      1          8           0       -4.919045    1.233839   -0.723233
      2          6           0       -3.878394    1.379240   -0.134608
      3          8           0       -3.323113    0.327069    0.545028
      4          6           0       -3.068252    2.638398   -0.132724
      5          6           0       -1.732420    2.625607   -0.439864
      6          6           0       -0.977400    3.822354   -0.575897
      7          6           0       -1.646611    5.049555   -0.382218
      8          8           0       -2.973267    5.060835   -0.051905
      9          6           0       -3.756621    3.908399    0.106995
     10          8           0       -4.901264    4.067801    0.456094
     11          6           0       -1.017875    6.283750   -0.520428
     12          6           0        0.361288    6.300990   -0.862102
     13          6           0        1.071076    5.066539   -1.041875
     14          6           0        0.392070    3.872602   -0.913389
     15          6           0        2.542523    5.106369   -1.384001
     16          6           0        2.842825    6.333011   -2.249095
     17          6           0        2.394028    7.593965   -1.517966
     18          7           0        1.019740    7.499286   -1.018799
     19          6           0        0.367808    8.787422   -0.771967
     20          6           0       -0.813112    8.663384    0.184057
     21          6           0       -1.772375    7.574145   -0.301114
     22          1           0       -2.594298    0.637195    1.101878
     23          1           0       -1.230160    1.677245   -0.624282
     24          1           0        0.926208    2.938360   -1.072543
     25          1           0        3.144978    5.159905   -0.464882
     26          1           0        2.833047    4.183002   -1.895841
     27          1           0        3.911925    6.410989   -2.472516
     28          1           0        2.311552    6.249463   -3.204990
     29          1           0        2.444448    8.457161   -2.193713
     30          1           0        3.075159    7.806404   -0.678113
     31          1           0        0.037564    9.222916   -1.729324
     32          1           0        1.122194    9.466639   -0.355933
     33          1           0       -1.321890    9.630362    0.252881
     34          1           0       -0.447480    8.414090    1.187757
     35          1           0       -2.254723    7.893647   -1.236288
     36          1           0       -2.580231    7.414062    0.417218
 ---------------------------------------------------------------------
                    Distance matrix (angstroms):
                    1          2          3          4          5
     1  O    0.000000
     2  C    1.204399   0.000000
     3  O    2.231080   1.370148   0.000000
     4  C    2.397273   1.497268   2.422095   0.000000
     5  C    3.488824   2.500362   2.963712   1.370747   0.000000
     6  C    4.717911   3.818285   4.356129   2.443321   1.421536
     7  C    5.038334   4.302717   5.096304   2.810158   2.426152
     8  O    4.345415   3.792128   4.784063   2.425645   2.760534
     9  C    3.032125   2.543589   3.633969   1.464316   2.458048
    10  O    3.069604   2.936588   4.060978   2.397881   3.595030
    11  C    6.384501   5.690838   6.475443   4.200351   3.728146
    12  C    7.319646   6.536648   7.158390   5.070337   4.250922
    13  C    7.118474   6.238313   6.655053   4.884308   3.765655
    14  C    5.933563   5.006017   5.338573   3.755866   2.508522
    15  C    8.432562   7.528655   7.808235   6.255987   5.031969
    16  C    9.411506   8.613111   9.049710   7.284918   6.160441
    17  C    9.724394   8.937547   9.473616   7.504201   6.547859
    18  N    8.637844   7.888502   8.529163   6.412881   5.626927
    19  C    9.220076   8.562570   9.323891   7.072880   6.518376
    20  C    8.536978   7.909251   8.713469   6.440999   6.139150
    21  C    7.090783   6.545218   7.459279   5.105806   4.950644
    22  H    3.015205   1.930915   0.968210   2.398685   2.659621
    23  H    3.716755   2.709562   2.751492   2.131672   1.088883
    24  H    6.098720   5.137584   5.243291   4.114480   2.750709
    25  H    8.972692   7.983123   8.137101   6.713609   5.496572
    26  H    8.376605   7.483746   7.663182   6.349781   5.038734
    27  H   10.385033   9.564171   9.922974   8.272239   7.093619
    28  H    9.143147   8.453505   8.993711   7.170837   6.093601
    29  H   10.419199   9.711601  10.337497   8.276203   7.384391
    30  H   10.349297   9.484499   9.918387   8.046566   7.071792
    31  H    9.455450   8.910729   9.777674   7.453261   6.951262
    32  H   10.218145   9.511093  10.203148   8.014645   7.413204
    33  H    9.186617   8.646784   9.520583   7.217066   7.050889
    34  H    8.671953   7.937816   8.607105   6.478482   6.148720
    35  H    7.191306   6.803492   7.846505   5.431144   5.353442
    36  H    6.705657   6.197484   7.126968   4.831932   4.937881
                    6          7          8          9         10
     6  C    0.000000
     7  C    1.411161   0.000000
     8  O    2.406634   1.367206   0.000000
     9  C    2.863182   2.448205   1.402498   0.000000
    10  O    4.064721   3.501339   2.227409   1.207264   0.000000
    11  C    2.462353   1.391994   2.353422   3.679223   4.576542
    12  C    2.831543   2.414133   3.648789   4.860125   5.866790
    13  C    2.441595   2.796651   4.163746   5.095866   6.237807
    14  C    1.411338   2.413209   3.671450   4.272482   5.471103
    15  C    3.832961   4.307626   5.674548   6.583116   7.737864
    16  C    4.867968   5.028670   6.346102   7.415025   8.510003
    17  C    5.145781   4.908228   6.113422   7.352168   8.339786
    18  N    4.207679   3.676390   4.777555   6.080749   7.000621
    19  C    5.147808   4.263970   5.056553   6.448903   7.179560
    20  C    4.903069   3.751686   4.207173   5.592858   6.156815
    21  C    3.844922   2.529022   2.796600   4.188254   4.760017
    22  H    3.946457   4.750744   4.587311   3.611311   4.184279
    23  H    2.160492   3.406538   3.848989   3.449032   4.512092
    24  H    2.156809   3.398983   4.555492   4.925563   6.129583
    25  H    4.335362   4.793572   6.132967   7.037427   8.172080
    26  H    4.048682   4.807214   6.154996   6.892785   8.084828
    27  H    5.848393   6.092632   7.422139   8.468969   9.578079
    28  H    4.860061   5.007482   6.267703   7.298805   8.377822
    29  H    5.983962   5.624060   6.743442   8.027312   8.958094
    30  H    5.683866   5.475662   6.671862   7.904685   8.881830
    31  H    5.614856   4.697668   5.403865   6.783214   7.466142
    32  H    6.026162   5.213215   6.022985   7.410207   8.129508
    33  H    5.876947   4.636010   4.868318   6.220133   6.617802
    34  H    4.947254   3.901644   4.377291   5.693830   6.265920
    35  H    4.317765   3.031188   3.153394   4.465681   4.950297
    36  H    4.056563   2.664889   2.431508   3.710768   4.072612
                   11         12         13         14         15
    11  C    0.000000
    12  C    1.420960   0.000000
    13  C    2.473302   1.435265   0.000000
    14  C    2.820637   2.429124   1.379508   0.000000
    15  C    3.848171   2.541119   1.511223   2.523511   0.000000
    16  C    4.230333   2.843027   2.490066   3.720743   1.530759
    17  C    3.788512   2.496792   2.892187   4.268710   2.495622
    18  N    2.424412   1.376237   2.433398   3.682108   2.859772
    19  C    2.872588   2.488074   3.796368   4.916914   4.319042
    20  C    2.490158   2.838058   4.241506   5.060479   5.135314
    21  C    1.510791   2.547185   3.862904   4.331411   5.087329
    22  H    6.082809   6.683658   6.135938   4.842267   7.248451
    23  H    4.612563   4.895741   4.117935   2.744960   5.154532
    24  H    3.908442   3.416240   2.133325   1.087861   2.722085
    25  H    4.312245   3.034598   2.154694   3.071939   1.100271
    26  H    4.597228   3.415272   2.148125   2.649515   1.094985
    27  H    5.303750   3.900327   3.453216   4.611254   2.182237
    28  H    4.277047   3.048820   2.759920   3.819073   2.162409
    29  H    4.417157   3.280521   3.835257   5.183596   3.448632
    30  H    4.369927   3.108893   3.414020   4.767506   2.841156
    31  H    3.348743   3.065049   4.337765   5.423770   4.831152
    32  H    3.838976   3.294924   4.453539   5.668959   4.699597
    33  H    3.448224   3.893713   5.313301   6.119612   6.170866
    34  H    2.789551   3.053068   4.299229   5.073931   5.147337
    35  H    2.152677   3.085464   4.369356   4.824788   5.550163
    36  H    2.144235   3.395309   4.579504   4.811135   5.900207
                   16         17         18         19         20
    16  C    0.000000
    17  C    1.525114   0.000000
    18  N    2.489471   1.465196   0.000000
    19  C    3.785730   2.467067   1.464662   0.000000
    20  C    4.971594   3.785008   2.482204   1.524448   0.000000
    21  C    5.160922   4.340511   2.883849   2.504821   1.530365
    22  H    8.557666   8.952297   8.040326   8.871954   8.272529
    23  H    6.395732   6.995783   6.254108   7.289028   7.045104
    24  H    4.072021   4.901791   4.562202   5.883340   6.113933
    25  H    2.156593   2.756367   3.208764   4.578849   5.325596
    26  H    2.178859   3.459797   3.880081   5.342395   6.139567
    27  H    1.094976   2.148164   3.415029   4.593481   5.869978
    28  H    1.096798   2.158827   2.830241   4.017335   5.203478
    29  H    2.161893   1.097399   2.080322   2.538281   4.038319
    30  H    2.166299   1.102008   2.105976   2.881138   4.073869
    31  H    4.060936   2.872469   2.107229   1.102383   2.167430
    32  H    4.045276   2.544561   2.078549   1.097050   2.163844
    33  H    5.871734   4.592479   3.412021   2.148474   1.094823
    34  H    5.193164   4.008455   2.803300   2.155132   1.096927
    35  H    5.426450   4.666908   3.305288   2.809287   2.165206
    36  H    6.139009   5.340463   3.876751   3.462833   2.176667
                   21         22         23         24         25
    21  C    0.000000
    22  H    7.124972   0.000000
    23  H    5.930588   2.433558   0.000000
    24  H    5.419221   4.734704   2.537966   0.000000
    25  H    5.480487   7.473214   5.594297   3.198039   0.000000
    26  H    5.937417   7.142488   4.940176   2.421361   1.760478
    27  H    6.195094   9.404463   7.229477   4.788902   2.486768
    28  H    5.183217   8.608951   6.333164   4.174915   3.064299
    29  H    4.705661   9.869232   7.869760   5.832602   3.788337
    30  H    4.867716   9.311749   7.490344   5.335862   2.655993
    31  H    2.834451   9.415785   7.730808   6.380963   5.269051
    32  H    3.458767   9.690027   8.141268   6.570417   4.759358
    33  H    2.176667   9.122329   8.001869   7.182868   6.360274
    34  H    2.162774   8.068227   7.020054   6.081085   5.121200
    35  H    1.099678   7.631411   6.329924   5.890671   6.101245
    36  H    1.092821   6.811379   5.984854   5.877619   6.215894
                   26         27         28         29         30
    26  H    0.000000
    27  H    2.541743   0.000000
    28  H    2.501218   1.767428   0.000000
    29  H    4.302113   2.533385   2.431927   0.000000
    30  H    3.830212   2.422239   3.064680   1.765878   0.000000
    31  H    5.765691   4.844579   4.023684   2.568098   3.512625
    32  H    5.763259   4.647528   4.458914   2.478878   2.583457
    33  H    7.180129   6.721977   6.048905   4.641931   4.850527
    34  H    6.178393   6.034437   5.620863   4.449657   4.032337
    35  H    6.331612   6.461740   5.237365   4.828707   5.359740
    36  H    6.715174   7.176685   6.197275   5.757813   5.773830
                   31         32         33         34         35
    31  H    0.000000
    32  H    1.766926   0.000000
    33  H    2.437882   2.524086   0.000000
    34  H    3.065752   2.440229   1.765759   0.000000
    35  H    2.695296   3.827911   2.470624   3.068059   0.000000
    36  H    3.838287   4.303346   2.553902   2.478389   1.752153
                   36
    36  H    0.000000
 Stoichiometry    C16H15NO4
 Framework group  C1[X(C16H15NO4)]
 Deg. of freedom   102
 Full point group                 C1      NOp   1
 Largest Abelian subgroup         C1      NOp   1
 Largest concise Abelian subgroup C1      NOp   1
                         Standard orientation:                         
 ---------------------------------------------------------------------
 Center     Atomic      Atomic             Coordinates (Angstroms)
 Number     Number       Type             X           Y           Z
 ---------------------------------------------------------------------
      1          8           0        5.246697   -0.115374    0.978617
      2          6           0        4.514360   -0.566783    0.135713
      3          8           0        4.977017   -1.517406   -0.735820
      4          6           0        3.065488   -0.218687   -0.010611
      5          6           0        2.103728   -1.192481   -0.086033
      6          6           0        0.715949   -0.884545   -0.088798
      7          6           0        0.342046    0.474025   -0.012247
      8          8           0        1.302070    1.446161    0.038321
      9          6           0        2.681660    1.193852    0.029780
     10          8           0        3.414116    2.153500    0.021368
     11          6           0       -0.985167    0.892134    0.024335
     12          6           0       -2.003373   -0.097633   -0.028050
     13          6           0       -1.650289   -1.485078   -0.129608
     14          6           0       -0.318217   -1.843560   -0.140434
     15          6           0       -2.748333   -2.520602   -0.205639
     16          6           0       -3.954213   -2.062131    0.618303
     17          6           0       -4.422203   -0.698565    0.120662
     18          7           0       -3.328622    0.270909    0.015786
     19          6           0       -3.749363    1.673622    0.040430
     20          6           0       -2.698934    2.602381   -0.557856
     21          6           0       -1.340776    2.358323    0.103855
     22          1           0        4.339196   -1.652089   -1.451694
     23          1           0        2.397664   -2.240716   -0.107753
     24          1           0       -0.052432   -2.897077   -0.194302
     25          1           0       -3.062243   -2.665509   -1.250177
     26          1           0       -2.375672   -3.488050    0.146724
     27          1           0       -4.782784   -2.773907    0.542029
     28          1           0       -3.673967   -1.994677    1.676546
     29          1           0       -5.169750   -0.284542    0.809170
     30          1           0       -4.914818   -0.802795   -0.859587
     31          1           0       -3.974778    1.972737    1.077236
     32          1           0       -4.686954    1.748646   -0.524206
     33          1           0       -3.019177    3.640509   -0.422308
     34          1           0       -2.622352    2.422068   -1.637148
     35          1           0       -1.375726    2.682410    1.154112
     36          1           0       -0.559246    2.955958   -0.371854
 ---------------------------------------------------------------------
 Rotational constants (GHZ):      0.6955362      0.1790611      0.1463696
 Leave Link  202 at Mon Jan 16 06:49:39 2012, MaxMem=  536870912 cpu:       0.0
 (Enter /usr/local/gaussian/g09/l301.exe)
 Standard basis: 6-31+G(d,p) (6D, 7F)
 Ernie: Thresh=  0.10000D-02 Tol=  0.10000D-05 Strict=F.
 There are   474 symmetry adapted basis functions of A   symmetry.
 Integral buffers will be    131072 words long.
 Raffenetti 2 integral format.
 Two-electron integral symmetry is turned on.
   474 basis functions,   777 primitive gaussians,   474 cartesian basis functions
    75 alpha electrons       75 beta electrons
       nuclear repulsion energy      1648.3402809625 Hartrees.
 IExCor=  402 DFT=T Ex+Corr=B3LYP ExCW=0 ScaHFX=  0.200000
 ScaDFX=  0.800000  0.720000  1.000000  0.810000 ScalE2=  1.000000  1.000000
 IRadAn=      0 IRanWt=     -1 IRanGd=            0 ICorTp=0
 NAtoms=   36 NActive=   36 NUniq=   36 SFac= 7.50D-01 NAtFMM=   80 NAOKFM=F Big=F
 Leave Link  301 at Mon Jan 16 06:49:39 2012, MaxMem=  536870912 cpu:       0.5
 (Enter /usr/local/gaussian/g09/l302.exe)
 NPDir=0 NMtPBC=     1 NCelOv=     1 NCel=       1 NClECP=     1 NCelD=      1
         NCelK=      1 NCelE2=     1 NClLst=     1 CellRange=     0.0.
 One-electron integrals computed using PRISM.
 NBasis=   474 RedAO= T  NBF=   474
 NBsUse=   470 1.00D-06 NBFU=   470
 Precomputing XC quadrature grid using
 IXCGrd= 2 IRadAn=           0 IRanWt=          -1 IRanGd=           0 AccXCQ= 1.00D-10.
 NRdTot=    2341 NPtTot=      298786 NUsed=      315654 NTot=      315686
 NSgBfM=   470   470   470   470   470 NAtAll=    36    36.
 Leave Link  302 at Mon Jan 16 06:49:42 2012, MaxMem=  536870912 cpu:       9.5
 (Enter /usr/local/gaussian/g09/l308.exe)
 Leave Link  308 at Mon Jan 16 06:49:43 2012, MaxMem=  536870912 cpu:       0.7
 (Enter /usr/local/gaussian/g09/l303.exe)
 DipDrv:  MaxL=1.
 Leave Link  303 at Mon Jan 16 06:49:44 2012, MaxMem=  536870912 cpu:       0.7
 (Enter /usr/local/gaussian/g09/l401.exe)
 Initial guess read from the checkpoint file:  tddft_c343.chk
 B after Tr=     0.000000    0.000000    0.000000
         Rot=    1.000000    0.000000    0.000000    0.000000 Ang=   0.00 deg.
 Guess basis will be translated and rotated to current coordinates.
 Initial guess orbital symmetries:
       Occupied  (A) (A) (A) (A) (A) (A) (A) (A) (A) (A) (A) (A)
                 (A) (A) (A) (A) (A) (A) (A) (A) (A) (A) (A) (A)
                 (A) (A) (A) (A) (A) (A) (A) (A) (A) (A) (A) (A)
                 (A) (A) (A) (A) (A) (A) (A) (A) (A) (A) (A) (A)
                 (A) (A) (A) (A) (A) (A) (A) (A) (A) (A) (A) (A)
                 (A) (A) (A) (A) (A) (A) (A) (A) (A) (A) (A) (A)
                 (A) (A) (A)
       Virtual   (A) (A) (A) (A) (A) (A) (A) (A) (A) (A) (A) (A)
                 (A) (A) (A) (A) (A) (A) (A) (A) (A) (A) (A) (A)
                 (A) (A) (A) (A) (A) (A) (A) (A) (A) (A) (A) (A)
                 (A) (A) (A) (A) (A) (A) (A) (A) (A) (A) (A) (A)
                 (A) (A) (A) (A) (A) (A) (A) (A) (A) (A) (A) (A)
                 (A) (A) (A) (A) (A) (A) (A) (A) (A) (A) (A) (A)
                 (A) (A) (A) (A) (A) (A) (A) (A) (A) (A) (A) (A)
                 (A) (A) (A) (A) (A) (A) (A) (A) (A) (A) (A) (A)
                 (A) (A) (A) (A) (A) (A) (A) (A) (A) (A) (A) (A)
                 (A) (A) (A) (A) (A) (A) (A) (A) (A) (A) (A) (A)
                 (A) (A) (A) (A) (A) (A) (A) (A) (A) (A) (A) (A)
                 (A) (A) (A) (A) (A) (A) (A) (A) (A) (A) (A) (A)
                 (A) (A) (A) (A) (A) (A) (A) (A) (A) (A) (A) (A)
                 (A) (A) (A) (A) (A) (A) (A) (A) (A) (A) (A) (A)
                 (A) (A) (A) (A) (A) (A) (A) (A) (A) (A) (A) (A)
                 (A) (A) (A) (A) (A) (A) (A) (A) (A) (A) (A) (A)
                 (A) (A) (A) (A) (A) (A) (A) (A) (A) (A) (A) (A)
                 (A) (A) (A) (A) (A) (A) (A) (A) (A) (A) (A) (A)
                 (A) (A) (A) (A) (A) (A) (A) (A) (A) (A) (A) (A)
                 (A) (A) (A) (A) (A) (A) (A) (A) (A) (A) (A) (A)
                 (A) (A) (A) (A) (A) (A) (A) (A) (A) (A) (A) (A)
                 (A) (A) (A) (A) (A) (A) (A) (A) (A) (A) (A) (A)
                 (A) (A) (A) (A) (A) (A) (A) (A) (A) (A) (A) (A)
                 (A) (A) (A) (A) (A) (A) (A) (A) (A) (A) (A) (A)
                 (A) (A) (A) (A) (A) (A) (A) (A) (A) (A) (A) (A)
                 (A) (A) (A) (A) (A) (A) (A) (A) (A) (A) (A) (A)
                 (A) (A) (A) (A) (A) (A) (A) (A) (A) (A) (A) (A)
                 (A) (A) (A) (A) (A) (A) (A) (A) (A) (A) (A) (A)
                 (A) (A) (A) (A) (A) (A) (A) (A) (A) (A) (A) (A)
                 (A) (A) (A) (A) (A) (A) (A) (A) (A) (A) (A) (A)
                 (A) (A) (A) (A) (A) (A) (A) (A) (A) (A) (A) (A)
                 (A) (A) (A) (A) (A) (A) (A) (A) (A) (A) (A) (A)
                 (A) (A) (A) (A) (A) (A) (A) (A) (A) (A) (A)
 The electronic state of the initial guess is 1-A.
 Leave Link  401 at Mon Jan 16 06:49:50 2012, MaxMem=  536870912 cpu:      19.8
 (Enter /usr/local/gaussian/g09/l502.exe)
 Closed shell SCF:
 Requested convergence on RMS density matrix=1.00D-08 within 128 cycles.
 Requested convergence on MAX density matrix=1.00D-06.
 Requested convergence on             energy=1.00D-06.
 No special actions if energy rises.
 Using DIIS extrapolation, IDIIS=  1040.
 Integral symmetry usage will be decided dynamically.
       315317 words used for storage of precomputed grid.
 IEnd=     1013875 IEndB=     1013875 NGot=   536870912 MDV=   536098828
 LenX=   536098828 LenY=   535873678
 Fock matrices will be formed incrementally for  20 cycles.

 Cycle   1  Pass 1  IDiag  1:
 FoFCou: FMM=F IPFlag=           0 FMFlag=      100000 FMFlg1=           0
         NFxFlg=           0 DoJE=F BraDBF=F KetDBF=F FulRan=T
         Omega=  0.000000  0.000000  1.000000  0.000000  0.000000 ICntrl=       0 IOpCl=  0
         NMat0=    1 NMatS0=    1 NMatT0=    0 NMatD0=    1 NMtDS0=    0 NMtDT0=    0
         I1Cent=           0 NGrid=           0.
 Symmetry not used in FoFCou.
 E= -974.469702919980    
 DIIS: error= 4.85D-10 at cycle   1 NSaved=   1.
 NSaved= 1 IEnMin= 1 EnMin= -974.469702919980     IErMin= 1 ErrMin= 4.85D-10
 ErrMax= 4.85D-10 EMaxC= 1.00D-01 BMatC= 5.29D-16 BMatP= 5.29D-16
 IDIUse=1 WtCom= 1.00D+00 WtEn= 0.00D+00
 Coeff-Com:  0.100D+01
 Coeff:      0.100D+01
 Gap=     0.130 Goal=   None    Shift=    0.000
 RMSDP=4.43D-08 MaxDP=5.00D-06              OVMax= 2.71D-08

 Cycle   2  Pass 1  IDiag  1:
 RMSU=  2.43D-08    CP:  1.00D+00
 E= -974.469702920030     Delta-E=       -0.000000000050 Rises=F Damp=F
 DIIS: error= 8.37D-10 at cycle   2 NSaved=   2.
 NSaved= 2 IEnMin= 2 EnMin= -974.469702920030     IErMin= 1 ErrMin= 4.85D-10
 ErrMax= 8.37D-10 EMaxC= 1.00D-01 BMatC= 1.55D-15 BMatP= 5.29D-16
 IDIUse=1 WtCom= 1.00D+00 WtEn= 0.00D+00
 Coeff-Com:  0.634D+00 0.366D+00
 Coeff:      0.634D+00 0.366D+00
 Gap=     0.130 Goal=   None    Shift=    0.000
 RMSDP=9.64D-10 MaxDP=8.92D-08 DE=-5.00D-11 OVMax= 1.84D-08

 SCF Done:  E(RB3LYP) =  -974.469702920     A.U. after    2 cycles
             Convg  =    0.9638D-09             -V/T =  2.0094
 KE= 9.654343918026D+02 PE=-5.563864049862D+03 EE= 1.975619674177D+03
 Leave Link  502 at Mon Jan 16 06:52:30 2012, MaxMem=  536870912 cpu:     637.0
 (Enter /usr/local/gaussian/g09/l801.exe)
 ExpMin= 4.38D-02 ExpMax= 5.48D+03 ExpMxC= 8.25D+02 IAcc=3 IRadAn=         5 AccDes= 0.00D+00
 HarFok:  IExCor=  205 AccDes= 0.00D+00 IRadAn=         5 IDoV=-2
 ScaDFX=  1.000000  1.000000  1.000000  1.000000
 Largest valence mixing into a core orbital is  6.43D-05
 Largest core mixing into a valence orbital is  1.32D-05
 Range of M.O.s used for correlation:    22   470
 NBasis=   474 NAE=    75 NBE=    75 NFC=    21 NFV=     0
 NROrb=    449 NOA=    54 NOB=    54 NVA=   395 NVB=   395

 **** Warning!!: The largest alpha MO coefficient is  0.20706285D+03

 Leave Link  801 at Mon Jan 16 06:52:32 2012, MaxMem=  536870912 cpu:       3.9
 (Enter /usr/local/gaussian/g09/l914.exe)
 RHF ground state
 MDV=   536870912 DFT=T DoStab=F Mixed=T DoRPA=T DoScal=F NonHer=T
 Would need an additional 18585800000 words for in-memory AO integral storage.
 Making orbital integer symmetry assigments:
 Orbital symmetries:
       Occupied  (A) (A) (A) (A) (A) (A) (A) (A) (A) (A) (A) (A)
                 (A) (A) (A) (A) (A) (A) (A) (A) (A) (A) (A) (A)
                 (A) (A) (A) (A) (A) (A) (A) (A) (A) (A) (A) (A)
                 (A) (A) (A) (A) (A) (A) (A) (A) (A) (A) (A) (A)
                 (A) (A) (A) (A) (A) (A) (A) (A) (A) (A) (A) (A)
                 (A) (A) (A) (A) (A) (A) (A) (A) (A) (A) (A) (A)
                 (A) (A) (A)
       Virtual   (A) (A) (A) (A) (A) (A) (A) (A) (A) (A) (A) (A)
                 (A) (A) (A) (A) (A) (A) (A) (A) (A) (A) (A) (A)
                 (A) (A) (A) (A) (A) (A) (A) (A) (A) (A) (A) (A)
                 (A) (A) (A) (A) (A) (A) (A) (A) (A) (A) (A) (A)
                 (A) (A) (A) (A) (A) (A) (A) (A) (A) (A) (A) (A)
                 (A) (A) (A) (A) (A) (A) (A) (A) (A) (A) (A) (A)
                 (A) (A) (A) (A) (A) (A) (A) (A) (A) (A) (A) (A)
                 (A) (A) (A) (A) (A) (A) (A) (A) (A) (A) (A) (A)
                 (A) (A) (A) (A) (A) (A) (A) (A) (A) (A) (A) (A)
                 (A) (A) (A) (A) (A) (A) (A) (A) (A) (A) (A) (A)
                 (A) (A) (A) (A) (A) (A) (A) (A) (A) (A) (A) (A)
                 (A) (A) (A) (A) (A) (A) (A) (A) (A) (A) (A) (A)
                 (A) (A) (A) (A) (A) (A) (A) (A) (A) (A) (A) (A)
                 (A) (A) (A) (A) (A) (A) (A) (A) (A) (A) (A) (A)
                 (A) (A) (A) (A) (A) (A) (A) (A) (A) (A) (A) (A)
                 (A) (A) (A) (A) (A) (A) (A) (A) (A) (A) (A) (A)
                 (A) (A) (A) (A) (A) (A) (A) (A) (A) (A) (A) (A)
                 (A) (A) (A) (A) (A) (A) (A) (A) (A) (A) (A) (A)
                 (A) (A) (A) (A) (A) (A) (A) (A) (A) (A) (A) (A)
                 (A) (A) (A) (A) (A) (A) (A) (A) (A) (A) (A) (A)
                 (A) (A) (A) (A) (A) (A) (A) (A) (A) (A) (A) (A)
                 (A) (A) (A) (A) (A) (A) (A) (A) (A) (A) (A) (A)
                 (A) (A) (A) (A) (A) (A) (A) (A) (A) (A) (A) (A)
                 (A) (A) (A) (A) (A) (A) (A) (A) (A) (A) (A) (A)
                 (A) (A) (A) (A) (A) (A) (A) (A) (A) (A) (A) (A)
                 (A) (A) (A) (A) (A) (A) (A) (A) (A) (A) (A) (A)
                 (A) (A) (A) (A) (A) (A) (A) (A) (A) (A) (A) (A)
                 (A) (A) (A) (A) (A) (A) (A) (A) (A) (A) (A) (A)
                 (A) (A) (A) (A) (A) (A) (A) (A) (A) (A) (A) (A)
                 (A) (A) (A) (A) (A) (A) (A) (A) (A) (A) (A) (A)
                 (A) (A) (A) (A) (A) (A) (A) (A) (A) (A) (A) (A)
                 (A) (A) (A) (A) (A) (A) (A) (A) (A) (A) (A) (A)
                 (A) (A) (A) (A) (A) (A) (A) (A) (A) (A) (A)
    12 initial guesses have been made.
 Convergence on wavefunction:    0.001000000000000
 Davidson Disk Diagonalization:  ConvIn= 1.00D-03 SkipCon=T Conv= 1.00D-03.
 Max sub-space:   200 roots to seek:    12 dimension of matrix:  42660
 Iteration     1 Dimension    12 NMult    12
 Cannot handle 2e integral symmetry, ISym2E=1.
 CISAX:  IP=  1 NPass=   1 NMax=    12.
 CISAX will form    12 AO SS matrices at one time.
 NMat=    12 NSing=    12.
 Symmetry not used in FoFDir.
 MinBra= 0 MaxBra= 2 Meth= 1.
 IRaf=       0 NMat=  12 IRICut=      30 DoRegI=T DoRafI=T ISym2E= 0 JSym2E=0.
 Cannot handle 2e integral symmetry, ISym2E=1.
 CISAX:  IP=  1 NPass=   1 NMax=    12.
 CISAX will form    12 AO SS matrices at one time.
 NMat=    12 NSing=    12.
 Excitation Energies [eV] at current iteration:
 Root      1 :     3.967707646897748
 Root      2 :     4.238515012560257
 Root      3 :     4.378216245803176
 Iteration     2 Dimension    18 NMult    18
 Cannot handle 2e integral symmetry, ISym2E=1.
 CISAX:  IP=  1 NPass=   1 NMax=     6.
 CISAX will form     6 AO SS matrices at one time.
 NMat=     6 NSing=     6.
 Cannot handle 2e integral symmetry, ISym2E=1.
 CISAX:  IP=  1 NPass=   1 NMax=     6.
 CISAX will form     6 AO SS matrices at one time.
 NMat=     6 NSing=     6.
 Root      1 not converged, maximum delta is    0.167222864295480
 Root      2 not converged, maximum delta is    0.164208266403828
 Root      3 not converged, maximum delta is    0.044998999005832
 Excitation Energies [eV] at current iteration:
 Root      1 :     3.413637705892117   Change is   -0.554069941005632
 Root      2 :     3.919208713614791   Change is   -0.319306298945466
 Root      3 :     4.293482790068234   Change is   -0.084733455734942
 Iteration     3 Dimension    24 NMult    24
 Cannot handle 2e integral symmetry, ISym2E=1.
 CISAX:  IP=  1 NPass=   1 NMax=     6.
 CISAX will form     6 AO SS matrices at one time.
 NMat=     6 NSing=     6.
 Cannot handle 2e integral symmetry, ISym2E=1.
 CISAX:  IP=  1 NPass=   1 NMax=     6.
 CISAX will form     6 AO SS matrices at one time.
 NMat=     6 NSing=     6.
 Root      1 not converged, maximum delta is    0.019347573457946
 Root      2 not converged, maximum delta is    0.036617041797457
 Root      3 not converged, maximum delta is    0.026242798639169
 Excitation Energies [eV] at current iteration:
 Root      1 :     3.355788285778300   Change is   -0.057849420113817
 Root      2 :     3.895472092712217   Change is   -0.023736620902573
 Root      3 :     4.282703397660652   Change is   -0.010779392407583
 Iteration     4 Dimension    30 NMult    30
 Cannot handle 2e integral symmetry, ISym2E=1.
 CISAX:  IP=  1 NPass=   1 NMax=     6.
 CISAX will form     6 AO SS matrices at one time.
 NMat=     6 NSing=     6.
 Cannot handle 2e integral symmetry, ISym2E=1.
 CISAX:  IP=  1 NPass=   1 NMax=     6.
 CISAX will form     6 AO SS matrices at one time.
 NMat=     6 NSing=     6.
 Root      1 not converged, maximum delta is    0.009618219317635
 Root      2 not converged, maximum delta is    0.019860084579139
 Root      3 not converged, maximum delta is    0.011133681274320
 Excitation Energies [eV] at current iteration:
 Root      1 :     3.347706742456209   Change is   -0.008081543322092
 Root      2 :     3.891222852131049   Change is   -0.004249240581168
 Root      3 :     4.280697578288718   Change is   -0.002005819371933
 Iteration     5 Dimension    36 NMult    36
 Cannot handle 2e integral symmetry, ISym2E=1.
 CISAX:  IP=  1 NPass=   1 NMax=     6.
 CISAX will form     6 AO SS matrices at one time.
 NMat=     6 NSing=     6.
 Cannot handle 2e integral symmetry, ISym2E=1.
 CISAX:  IP=  1 NPass=   1 NMax=     6.
 CISAX will form     6 AO SS matrices at one time.
 NMat=     6 NSing=     6.
 Root      1 not converged, maximum delta is    0.001516373275732
 Root      2 not converged, maximum delta is    0.002257556704199
 Root      3 not converged, maximum delta is    0.006964315269212
 Excitation Energies [eV] at current iteration:
 Root      1 :     3.346815255757697   Change is   -0.000891486698511
 Root      2 :     3.890791146585966   Change is   -0.000431705545083
 Root      3 :     4.280393495815495   Change is   -0.000304082473223
 Iteration     6 Dimension    42 NMult    42
 Cannot handle 2e integral symmetry, ISym2E=1.
 CISAX:  IP=  1 NPass=   1 NMax=     6.
 CISAX will form     6 AO SS matrices at one time.
 NMat=     6 NSing=     6.
 Cannot handle 2e integral symmetry, ISym2E=1.
 CISAX:  IP=  1 NPass=   1 NMax=     6.
 CISAX will form     6 AO SS matrices at one time.
 NMat=     6 NSing=     6.
 Root      1 has converged.
 Root      2 has converged.
 Root      3 not converged, maximum delta is    0.005536396876360
 Excitation Energies [eV] at current iteration:
 Root      1 :     3.346738920773071   Change is   -0.000076334984626
 Root      2 :     3.890709781814344   Change is   -0.000081364771622
 Root      3 :     4.280339275361060   Change is   -0.000054220454435
 Iteration     7 Dimension    44 NMult    44
 Cannot handle 2e integral symmetry, ISym2E=1.
 CISAX:  IP=  1 NPass=   1 NMax=     2.
 CISAX will form     2 AO SS matrices at one time.
 NMat=     2 NSing=     2.
 Cannot handle 2e integral symmetry, ISym2E=1.
 CISAX:  IP=  1 NPass=   1 NMax=     2.
 CISAX will form     2 AO SS matrices at one time.
 NMat=     2 NSing=     2.
 Root      1 has converged.
 Root      2 has converged.
 Root      3 not converged, maximum delta is    0.004291175620302
 Excitation Energies [eV] at current iteration:
 Root      1 :     3.346738909066853   Change is   -0.000000011706218
 Root      2 :     3.890709477530946   Change is   -0.000000304283398
 Root      3 :     4.280325064377926   Change is   -0.000014210983135
 Iteration     8 Dimension    46 NMult    46
 Cannot handle 2e integral symmetry, ISym2E=1.
 CISAX:  IP=  1 NPass=   1 NMax=     2.
 CISAX will form     2 AO SS matrices at one time.
 NMat=     2 NSing=     2.
 Cannot handle 2e integral symmetry, ISym2E=1.
 CISAX:  IP=  1 NPass=   1 NMax=     2.
 CISAX will form     2 AO SS matrices at one time.
 NMat=     2 NSing=     2.
 Root      1 has converged.
 Root      2 has converged.
 Root      3 not converged, maximum delta is    0.002348422239935
 Excitation Energies [eV] at current iteration:
 Root      1 :     3.346738864695234   Change is   -0.000000044371619
 Root      2 :     3.890709339425054   Change is   -0.000000138105892
 Root      3 :     4.280320909403391   Change is   -0.000004154974534
 Convergence on energies, max DE= 4.15D-06.
 Convergence on expansion vectors.
 ***********************************************************************
 Excited states from <AA,BB:AA,BB> singles matrix:
 ***********************************************************************
 
 1PDM for each excited state written to RWF  633
 Ground to excited state transition electric dipole moments (Au):
       state          X           Y           Z        Dip. S.      Osc.
         1        -2.5440     -0.1110     -0.0045      6.4842      0.5317
         2        -0.2619      0.0057      0.0078      0.0687      0.0065
         3         0.0702      0.1133      0.0174      0.0181      0.0019
 Ground to excited state transition velocity dipole moments (Au):
       state          X           Y           Z        Dip. S.      Osc.
         1         0.3024      0.0141      0.0011      0.0916      0.4967
         2         0.0403     -0.0034     -0.0010      0.0016      0.0076
         3        -0.0074     -0.0157      0.0000      0.0003      0.0013
 Ground to excited state transition magnetic dipole moments (Au):
       state          X           Y           Z
         1         0.0071     -0.0753      1.0611
         2         0.0021     -0.0568      0.6312
         3        -0.2717     -0.3094     -0.2263
 <0|del|b> * <b|rxdel|0> + <0|del|b> * <b|delr+rdel|0>
 Rotatory Strengths (R) in cgs (10**-40 erg-esu-cm/Gauss)
       state          XX          YY          ZZ    R(velocity)
         1        -1.7035     22.8012     -8.3680      4.2432
 Total R(velocity) tensor for State=          1
                 1             2             3 
      1  -0.170347D+01  0.108435D+03 -0.946500D+03
      2  -0.131594D+01  0.228012D+02  0.701353D+02
      3   0.348190D+00 -0.680828D+01 -0.836804D+01
 R(velocity) tensor in inp. orien. for State=          1
                 1             2             3 
      1  -0.111009D+03 -0.252408D+02 -0.605846D+03
      2  -0.157745D+03  0.203395D+01 -0.702197D+03
      3   0.147234D+02  0.132220D+02  0.121705D+03
         2        -0.9991     -1.7423      1.0125     -0.5763
 Total R(velocity) tensor for State=          2
                 1             2             3 
      1  -0.999078D+00  0.786760D+01 -0.673433D+02
      2  -0.110031D+00 -0.174227D+01  0.154399D+01
      3  -0.887040D-01 -0.133696D+01  0.101251D+01
 R(velocity) tensor in inp. orien. for State=          2
                 1             2             3 
      1  -0.104454D+02 -0.461560D+00 -0.442189D+02
      2  -0.930365D+01 -0.221473D+01 -0.482401D+02
      3   0.169599D+01  0.839114D+00  0.109313D+02
         3         9.7239      4.4278     16.6090     10.2536
 Total R(velocity) tensor for State=          3
                 1             2             3 
      1   0.972387D+01 -0.456769D+01  0.388279D+01
      2  -0.945136D+01  0.442782D+01 -0.941070D+01
      3   0.710904D-01  0.150839D-02  0.166090D+02
 R(velocity) tensor in inp. orien. for State=          3
                 1             2             3 
      1   0.441376D+00  0.389490D+00  0.935907D+00
      2   0.742169D+01  0.135028D+02  0.743821D+01
      3   0.519912D+01 -0.265170D+00  0.168165D+02
 1/2[<0|r|b>*<b|rxdel|0> + (<0|rxdel|b>*<b|r|0>)*]
 Rotatory Strengths (R) in cgs (10**-40 erg-esu-cm/Gauss)
       state          XX          YY          ZZ     R(length)     R(au)
         1        12.7139     -5.9100      3.4107      3.4048      0.0072
         2         0.3953      0.2292     -3.4869     -0.9541     -0.0020
         3        13.4844     24.7906      2.7777     13.6843      0.0290
  1/2[<0|del|b>*<b|r|0> + (<0|r|b>*<b|del|0>)*] (Au)
       state          X           Y           Z        Dip. S.   Osc.(frdel)
         1        -0.7693     -0.0016      0.0000      0.7708      0.5139
         2        -0.0106      0.0000      0.0000      0.0106      0.0071
         3        -0.0005     -0.0018      0.0000      0.0023      0.0015
 Ground to excited state transition densities written to RWF  633

 Excitation energies and oscillator strengths:
 
 Excited State   1:      Singlet-A      3.3467 eV  370.46 nm  f=0.5317  <S**2>=0.000
      75 -> 76         0.69790
 This state for optimization and/or second-order correction.
 Total Energy, E(TD-HF/TD-KS) =  -974.346712524    
 Copying the excited state density for this state as the 1-particle RhoCI density.
 
 Excited State   2:      Singlet-A      3.8907 eV  318.67 nm  f=0.0065  <S**2>=0.000
      74 -> 76         0.66892
      75 -> 77         0.20436
 
 Excited State   3:      Singlet-A      4.2803 eV  289.66 nm  f=0.0019  <S**2>=0.000
      72 -> 76        -0.25494
      73 -> 76         0.63171
      75 -> 77        -0.13245
 SavETr:  write IOETrn=   770 NScale= 10 NData=  16 NLR=1 LETran=      64.
 Leave Link  914 at Mon Jan 16 08:08:48 2012, MaxMem=  536870912 cpu:   18235.8
 (Enter /usr/local/gaussian/g09/l601.exe)
 Copying SCF densities to generalized density rwf, IOpCl= 0 IROHF=0.

 **********************************************************************

            Population analysis using the SCF density.

 **********************************************************************

 Orbital symmetries:
       Occupied  (A) (A) (A) (A) (A) (A) (A) (A) (A) (A) (A) (A)
                 (A) (A) (A) (A) (A) (A) (A) (A) (A) (A) (A) (A)
                 (A) (A) (A) (A) (A) (A) (A) (A) (A) (A) (A) (A)
                 (A) (A) (A) (A) (A) (A) (A) (A) (A) (A) (A) (A)
                 (A) (A) (A) (A) (A) (A) (A) (A) (A) (A) (A) (A)
                 (A) (A) (A) (A) (A) (A) (A) (A) (A) (A) (A) (A)
                 (A) (A) (A)
       Virtual   (A) (A) (A) (A) (A) (A) (A) (A) (A) (A) (A) (A)
                 (A) (A) (A) (A) (A) (A) (A) (A) (A) (A) (A) (A)
                 (A) (A) (A) (A) (A) (A) (A) (A) (A) (A) (A) (A)
                 (A) (A) (A) (A) (A) (A) (A) (A) (A) (A) (A) (A)
                 (A) (A) (A) (A) (A) (A) (A) (A) (A) (A) (A) (A)
                 (A) (A) (A) (A) (A) (A) (A) (A) (A) (A) (A) (A)
                 (A) (A) (A) (A) (A) (A) (A) (A) (A) (A) (A) (A)
                 (A) (A) (A) (A) (A) (A) (A) (A) (A) (A) (A) (A)
                 (A) (A) (A) (A) (A) (A) (A) (A) (A) (A) (A) (A)
                 (A) (A) (A) (A) (A) (A) (A) (A) (A) (A) (A) (A)
                 (A) (A) (A) (A) (A) (A) (A) (A) (A) (A) (A) (A)
                 (A) (A) (A) (A) (A) (A) (A) (A) (A) (A) (A) (A)
                 (A) (A) (A) (A) (A) (A) (A) (A) (A) (A) (A) (A)
                 (A) (A) (A) (A) (A) (A) (A) (A) (A) (A) (A) (A)
                 (A) (A) (A) (A) (A) (A) (A) (A) (A) (A) (A) (A)
                 (A) (A) (A) (A) (A) (A) (A) (A) (A) (A) (A) (A)
                 (A) (A) (A) (A) (A) (A) (A) (A) (A) (A) (A) (A)
                 (A) (A) (A) (A) (A) (A) (A) (A) (A) (A) (A) (A)
                 (A) (A) (A) (A) (A) (A) (A) (A) (A) (A) (A) (A)
                 (A) (A) (A) (A) (A) (A) (A) (A) (A) (A) (A) (A)
                 (A) (A) (A) (A) (A) (A) (A) (A) (A) (A) (A) (A)
                 (A) (A) (A) (A) (A) (A) (A) (A) (A) (A) (A) (A)
                 (A) (A) (A) (A) (A) (A) (A) (A) (A) (A) (A) (A)
                 (A) (A) (A) (A) (A) (A) (A) (A) (A) (A) (A) (A)
                 (A) (A) (A) (A) (A) (A) (A) (A) (A) (A) (A) (A)
                 (A) (A) (A) (A) (A) (A) (A) (A) (A) (A) (A) (A)
                 (A) (A) (A) (A) (A) (A) (A) (A) (A) (A) (A) (A)
                 (A) (A) (A) (A) (A) (A) (A) (A) (A) (A) (A) (A)
                 (A) (A) (A) (A) (A) (A) (A) (A) (A) (A) (A) (A)
                 (A) (A) (A) (A) (A) (A) (A) (A) (A) (A) (A) (A)
                 (A) (A) (A) (A) (A) (A) (A) (A) (A) (A) (A) (A)
                 (A) (A) (A) (A) (A) (A) (A) (A) (A) (A) (A) (A)
                 (A) (A) (A) (A) (A) (A) (A) (A) (A) (A) (A)
 The electronic state is 1-A.
 Alpha  occ. eigenvalues --  -19.22061 -19.20449 -19.14313 -19.14050 -14.38860
 Alpha  occ. eigenvalues --  -10.32883 -10.32833 -10.27827 -10.26550 -10.25110
 Alpha  occ. eigenvalues --  -10.24797 -10.24415 -10.22865 -10.21975 -10.21882
 Alpha  occ. eigenvalues --  -10.21825 -10.21708 -10.21621 -10.21445 -10.21130
 Alpha  occ. eigenvalues --  -10.20676  -1.12031  -1.10363  -1.03545  -1.02338
 Alpha  occ. eigenvalues --   -0.98728  -0.88348  -0.84906  -0.84511  -0.79898
 Alpha  occ. eigenvalues --   -0.78410  -0.77958  -0.71172  -0.70222  -0.67780
 Alpha  occ. eigenvalues --   -0.65502  -0.64571  -0.63823  -0.61544  -0.58810
 Alpha  occ. eigenvalues --   -0.56504  -0.55076  -0.54107  -0.51417  -0.50910
 Alpha  occ. eigenvalues --   -0.49307  -0.48159  -0.48102  -0.47114  -0.46444
 Alpha  occ. eigenvalues --   -0.45432  -0.45116  -0.44709  -0.44008  -0.43845
 Alpha  occ. eigenvalues --   -0.43043  -0.42710  -0.41982  -0.41371  -0.39938
 Alpha  occ. eigenvalues --   -0.39589  -0.37822  -0.37026  -0.36906  -0.36318
 Alpha  occ. eigenvalues --   -0.35596  -0.35423  -0.34171  -0.33648  -0.32295
 Alpha  occ. eigenvalues --   -0.29084  -0.28367  -0.27452  -0.24942  -0.21113
 Alpha virt. eigenvalues --   -0.08093  -0.02914  -0.01873  -0.01617  -0.00836
 Alpha virt. eigenvalues --   -0.00521   0.00255   0.00720   0.01121   0.01268
 Alpha virt. eigenvalues --    0.02368   0.02982   0.03430   0.03929   0.04307
 Alpha virt. eigenvalues --    0.05239   0.05557   0.05704   0.06572   0.06605
 Alpha virt. eigenvalues --    0.06825   0.07153   0.07857   0.08233   0.08750
 Alpha virt. eigenvalues --    0.09258   0.09673   0.10013   0.10275   0.10494
 Alpha virt. eigenvalues --    0.10661   0.11009   0.11915   0.12148   0.12587
 Alpha virt. eigenvalues --    0.13075   0.13545   0.13966   0.14238   0.14652
 Alpha virt. eigenvalues --    0.15057   0.15442   0.15818   0.15940   0.16480
 Alpha virt. eigenvalues --    0.16831   0.17076   0.17553   0.17679   0.18025
 Alpha virt. eigenvalues --    0.18254   0.18944   0.19127   0.19188   0.19461
 Alpha virt. eigenvalues --    0.19722   0.20497   0.20689   0.20846   0.21231
 Alpha virt. eigenvalues --    0.21492   0.21921   0.22036   0.22591   0.22733
 Alpha virt. eigenvalues --    0.22918   0.23770   0.24036   0.24215   0.24793
 Alpha virt. eigenvalues --    0.25005   0.25220   0.25606   0.25755   0.25865
 Alpha virt. eigenvalues --    0.26529   0.26847   0.27331   0.27499   0.27813
 Alpha virt. eigenvalues --    0.28630   0.28786   0.29369   0.29731   0.29963
 Alpha virt. eigenvalues --    0.30061   0.30696   0.30795   0.30953   0.31372
 Alpha virt. eigenvalues --    0.31584   0.32031   0.32912   0.33145   0.33769
 Alpha virt. eigenvalues --    0.33870   0.34343   0.34766   0.35052   0.35669
 Alpha virt. eigenvalues --    0.35958   0.36954   0.37371   0.38415   0.38966
 Alpha virt. eigenvalues --    0.39693   0.39794   0.40351   0.40657   0.41236
 Alpha virt. eigenvalues --    0.41379   0.42749   0.43666   0.43824   0.44672
 Alpha virt. eigenvalues --    0.45562   0.46047   0.47609   0.48505   0.49045
 Alpha virt. eigenvalues --    0.52331   0.53455   0.57444   0.58814   0.59405
 Alpha virt. eigenvalues --    0.63822   0.64984   0.65010   0.65568   0.66651
 Alpha virt. eigenvalues --    0.66895   0.67535   0.68456   0.69781   0.70590
 Alpha virt. eigenvalues --    0.70725   0.71908   0.72175   0.72543   0.73420
 Alpha virt. eigenvalues --    0.74797   0.75442   0.75762   0.76558   0.76842
 Alpha virt. eigenvalues --    0.78577   0.78916   0.79379   0.80190   0.81153
 Alpha virt. eigenvalues --    0.81665   0.82324   0.83046   0.84579   0.85132
 Alpha virt. eigenvalues --    0.85298   0.87188   0.88226   0.88990   0.89155
 Alpha virt. eigenvalues --    0.90608   0.91231   0.93073   0.93657   0.94518
 Alpha virt. eigenvalues --    0.95805   0.96993   0.98576   1.00010   1.00736
 Alpha virt. eigenvalues --    1.01295   1.02483   1.03708   1.04800   1.06955
 Alpha virt. eigenvalues --    1.08620   1.09350   1.10064   1.10459   1.11228
 Alpha virt. eigenvalues --    1.12224   1.12577   1.13602   1.14555   1.14777
 Alpha virt. eigenvalues --    1.15780   1.16281   1.18343   1.19936   1.20213
 Alpha virt. eigenvalues --    1.20681   1.21714   1.22385   1.22683   1.24231
 Alpha virt. eigenvalues --    1.25240   1.26521   1.28503   1.28843   1.29169
 Alpha virt. eigenvalues --    1.30306   1.30536   1.31208   1.32047   1.33689
 Alpha virt. eigenvalues --    1.34866   1.35167   1.35463   1.35842   1.38153
 Alpha virt. eigenvalues --    1.38325   1.39423   1.39952   1.40817   1.42118
 Alpha virt. eigenvalues --    1.43070   1.45371   1.45469   1.48413   1.49719
 Alpha virt. eigenvalues --    1.50757   1.53708   1.54892   1.56744   1.57878
 Alpha virt. eigenvalues --    1.58982   1.61085   1.61914   1.62826   1.65280
 Alpha virt. eigenvalues --    1.65378   1.67944   1.69058   1.69893   1.70691
 Alpha virt. eigenvalues --    1.72464   1.73097   1.73679   1.74355   1.76540
 Alpha virt. eigenvalues --    1.76729   1.77563   1.79262   1.79660   1.80938
 Alpha virt. eigenvalues --    1.81264   1.82285   1.82726   1.83942   1.84960
 Alpha virt. eigenvalues --    1.85886   1.87431   1.88393   1.88865   1.89426
 Alpha virt. eigenvalues --    1.89930   1.90970   1.91944   1.92433   1.93444
 Alpha virt. eigenvalues --    1.94311   1.96218   1.97494   1.97681   1.99406
 Alpha virt. eigenvalues --    1.99893   2.01491   2.02951   2.04122   2.05035
 Alpha virt. eigenvalues --    2.06038   2.06862   2.08925   2.09279   2.09658
 Alpha virt. eigenvalues --    2.10279   2.11581   2.12335   2.13522   2.14921
 Alpha virt. eigenvalues --    2.15450   2.17064   2.18405   2.20281   2.22714
 Alpha virt. eigenvalues --    2.24282   2.24807   2.25712   2.26851   2.27909
 Alpha virt. eigenvalues --    2.28601   2.29831   2.30879   2.33679   2.33973
 Alpha virt. eigenvalues --    2.34149   2.35058   2.38063   2.38701   2.40179
 Alpha virt. eigenvalues --    2.41747   2.42567   2.43951   2.44753   2.45934
 Alpha virt. eigenvalues --    2.47726   2.48268   2.49039   2.49575   2.51051
 Alpha virt. eigenvalues --    2.52076   2.52486   2.53465   2.55254   2.56800
 Alpha virt. eigenvalues --    2.57381   2.58093   2.60394   2.62190   2.63797
 Alpha virt. eigenvalues --    2.65096   2.65694   2.66548   2.67001   2.68396
 Alpha virt. eigenvalues --    2.70708   2.71318   2.72347   2.73590   2.74418
 Alpha virt. eigenvalues --    2.75719   2.75984   2.77674   2.78746   2.80277
 Alpha virt. eigenvalues --    2.81653   2.83278   2.83507   2.84423   2.85432
 Alpha virt. eigenvalues --    2.86170   2.88268   2.88863   2.89873   2.92861
 Alpha virt. eigenvalues --    2.95848   2.98216   3.01511   3.03927   3.08118
 Alpha virt. eigenvalues --    3.10375   3.12021   3.14546   3.17584   3.22562
 Alpha virt. eigenvalues --    3.24896   3.26477   3.27218   3.30035   3.30757
 Alpha virt. eigenvalues --    3.32113   3.33383   3.34700   3.35013   3.36822
 Alpha virt. eigenvalues --    3.45900   3.47414   3.48175   3.50826   3.51510
 Alpha virt. eigenvalues --    3.53792   3.55426   3.56805   3.67875   4.23636
 Alpha virt. eigenvalues --    4.26299   4.28236   4.33238   4.35324   4.38704
 Alpha virt. eigenvalues --    4.39906   4.43020   4.44388   4.46468   4.48515
 Alpha virt. eigenvalues --    4.50904   4.54650   4.59480   4.64616   4.65965
 Alpha virt. eigenvalues --    4.66508   4.69659   4.74195   4.90801   5.01508
          Condensed to atoms (all electrons):
              1          2          3          4          5          6
     1  O    8.117938   0.545945  -0.096992  -0.160799   0.169194   0.019000
     2  C    0.545945   7.729086   0.410077  -0.353886   0.931428  -0.608294
     3  O   -0.096992   0.410077   8.334157  -1.276492   0.779651   0.090261
     4  C   -0.160799  -0.353886  -1.276492  52.959699 -26.691365  -5.991701
     5  C    0.169194   0.931428   0.779651 -26.691365  35.814521   9.594254
     6  C    0.019000  -0.608294   0.090261  -5.991701   9.594254  32.944200
     7  C   -0.073116  -1.425227  -0.117009   3.166695  -8.721758 -14.147866
     8  O    0.000252  -0.040201  -0.001572  -0.683314   0.492066   1.066986
     9  C   -0.132542  -0.696182  -0.033178   2.041277  -4.529864  -1.993878
    10  O   -0.004560  -0.080837  -0.002888   0.031835  -0.172183  -0.184547
    11  C   -0.012843  -0.459960  -0.012388   0.040246  -4.072189 -10.297927
    12  C   -0.004482  -0.173789  -0.010594   4.031856  -2.030335   5.681675
    13  C    0.000712  -0.165881   0.010357  -5.901549   0.179311  -6.499786
    14  C    0.014756  -0.252874   0.129246 -14.111961   3.800162  -1.814358
    15  C   -0.000057  -0.046258   0.000742  -0.930799  -0.928627  -4.226254
    16  C    0.000014   0.002573   0.000032  -0.010288  -0.018870  -0.242858
    17  C   -0.000005  -0.000474  -0.000008   0.009839   0.037712   0.232167
    18  N    0.000004   0.001225   0.000005  -0.006985   0.022457  -0.064719
    19  C   -0.000028  -0.000983  -0.000016   0.035481  -0.027033  -0.113100
    20  C    0.000051   0.000737   0.000031  -0.044211   0.029129   0.211948
    21  C    0.001673   0.058263   0.001616  -0.326512   0.740456   1.105740
    22  H    0.011224  -0.068391   0.188057   0.164523  -0.069218  -0.011056
    23  H    0.000168  -0.023832   0.003855  -0.061026   0.333844  -0.042014
    24  H    0.000004   0.003184   0.000034   0.021922   0.046958  -0.014348
    25  H    0.000000  -0.000024   0.000000  -0.000269   0.007373  -0.039474
    26  H    0.000000  -0.000035   0.000000  -0.000586  -0.007615  -0.022505
    27  H    0.000000   0.000000   0.000000   0.000036  -0.000056   0.003753
    28  H    0.000000  -0.000008   0.000000  -0.000065   0.001594  -0.017590
    29  H    0.000000  -0.000001   0.000000  -0.000064  -0.000408  -0.000713
    30  H    0.000000   0.000001   0.000000   0.000116   0.000211   0.003068
    31  H    0.000000  -0.000007   0.000000  -0.000289  -0.000509   0.003942
    32  H    0.000000  -0.000001   0.000000   0.000008  -0.000146  -0.001196
    33  H    0.000000   0.000002   0.000000   0.000087  -0.000031   0.000146
    34  H    0.000000   0.000023   0.000000   0.000096  -0.000916   0.007371
    35  H    0.000000   0.000676   0.000000   0.008511   0.010226   0.043888
    36  H   -0.000001  -0.001097   0.000000  -0.011704  -0.010258  -0.025731
              7          8          9         10         11         12
     1  O   -0.073116   0.000252  -0.132542  -0.004560  -0.012843  -0.004482
     2  C   -1.425227  -0.040201  -0.696182  -0.080837  -0.459960  -0.173789
     3  O   -0.117009  -0.001572  -0.033178  -0.002888  -0.012388  -0.010594
     4  C    3.166695  -0.683314   2.041277   0.031835   0.040246   4.031856
     5  C   -8.721758   0.492066  -4.529864  -0.172183  -4.072189  -2.030335
     6  C  -14.147866   1.066986  -1.993878  -0.184547 -10.297927   5.681675
     7  C   26.231114  -0.311733   0.719969   0.049065   1.846314  -6.199425
     8  O   -0.311733   8.974404  -0.078768  -0.068487  -1.196949   0.011703
     9  C    0.719969  -0.078768   8.482317   0.614587   1.560890   0.336815
    10  O    0.049065  -0.068487   0.614587   8.189768   0.113544   0.001615
    11  C    1.846314  -1.196949   1.560890   0.113544  20.723278   2.436370
    12  C   -6.199425   0.011703   0.336815   0.001615   2.436370  21.071680
    13  C    2.765110  -0.011890   0.218600  -0.008228   0.292958  -8.722070
    14  C    0.445203   0.176628  -0.473913  -0.035828  -0.411555  -6.013999
    15  C    1.928686  -0.015789   0.048643  -0.000097   0.211908  -1.886323
    16  C    0.232779  -0.001433  -0.004303   0.000000   0.020452  -0.479306
    17  C   -0.226562   0.002496   0.001158   0.000001  -0.037676   0.252614
    18  N    0.128036  -0.004804   0.004906  -0.000036  -0.169543  -0.029318
    19  C   -0.251034  -0.008470   0.004042   0.000405   0.403338   0.258495
    20  C    0.191543   0.018401   0.007391  -0.001471  -0.568411  -0.144631
    21  C    1.233566   0.117060  -0.387625  -0.012538  -3.716372  -2.325590
    22  H    0.016716  -0.000121   0.009521   0.000328   0.000677   0.000969
    23  H    0.030437   0.000321   0.002967  -0.000961  -0.000699   0.000884
    24  H   -0.020080  -0.000630   0.000322  -0.000002   0.005056   0.005955
    25  H    0.010066  -0.000006   0.000038   0.000000  -0.014033  -0.068592
    26  H   -0.006283   0.000004   0.000008   0.000000  -0.007611   0.045906
    27  H   -0.000409   0.000000   0.000002   0.000000   0.002353   0.020921
    28  H    0.000448  -0.000002   0.000113   0.000000  -0.011683   0.029567
    29  H   -0.001704  -0.000001   0.000018   0.000000   0.001596   0.002525
    30  H   -0.003617  -0.000001  -0.000044   0.000000  -0.001539  -0.016443
    31  H    0.005893  -0.000072   0.000164   0.000000  -0.002334   0.001413
    32  H   -0.009537   0.000015  -0.000023   0.000000   0.017331   0.001870
    33  H   -0.008178   0.000183  -0.000066   0.000001   0.049549   0.012418
    34  H    0.021962  -0.000423   0.000828  -0.000005  -0.020911   0.019383
    35  H    0.127492   0.002424  -0.009832   0.000016  -0.294188  -0.084466
    36  H   -0.093983  -0.001266   0.007603   0.000276   0.047762   0.038297
             13         14         15         16         17         18
     1  O    0.000712   0.014756  -0.000057   0.000014  -0.000005   0.000004
     2  C   -0.165881  -0.252874  -0.046258   0.002573  -0.000474   0.001225
     3  O    0.010357   0.129246   0.000742   0.000032  -0.000008   0.000005
     4  C   -5.901549 -14.111961  -0.930799  -0.010288   0.009839  -0.006985
     5  C    0.179311   3.800162  -0.928627  -0.018870   0.037712   0.022457
     6  C   -6.499786  -1.814358  -4.226254  -0.242858   0.232167  -0.064719
     7  C    2.765110   0.445203   1.928686   0.232779  -0.226562   0.128036
     8  O   -0.011890   0.176628  -0.015789  -0.001433   0.002496  -0.004804
     9  C    0.218600  -0.473913   0.048643  -0.004303   0.001158   0.004906
    10  O   -0.008228  -0.035828  -0.000097   0.000000   0.000001  -0.000036
    11  C    0.292958  -0.411555   0.211908   0.020452  -0.037676  -0.169543
    12  C   -8.722070  -6.013999  -1.886323  -0.479306   0.252614  -0.029318
    13  C   19.107200   5.105354  -0.747876  -0.106331  -0.019391   0.011184
    14  C    5.105354  16.917685   1.750381   0.240222  -0.205657   0.047208
    15  C   -0.747876   1.750381  10.509227   0.445860  -0.341729  -0.032393
    16  C   -0.106331   0.240222   0.445860   5.504812   0.109203  -0.061108
    17  C   -0.019391  -0.205657  -0.341729   0.109203   5.691605   0.143782
    18  N    0.011184   0.047208  -0.032393  -0.061108   0.143782   7.270490
    19  C   -0.223100  -0.013899  -0.074121   0.023965  -0.177678   0.110789
    20  C    0.097821  -0.004376  -0.014474  -0.024534   0.050445  -0.047058
    21  C    0.500295   0.466977  -0.249917   0.036388  -0.088973  -0.077786
    22  H   -0.001114  -0.009605  -0.000112  -0.000002  -0.000001   0.000000
    23  H    0.017120   0.031984   0.000936   0.000093  -0.000031   0.000019
    24  H   -0.077658   0.317024  -0.002892   0.003430  -0.000901  -0.001071
    25  H   -0.191786   0.013247   0.634340  -0.063301   0.001427   0.015168
    26  H   -0.072147  -0.058038   0.434960  -0.008059   0.019437   0.004547
    27  H    0.050943   0.003988  -0.084327   0.355749  -0.032245   0.003681
    28  H   -0.020689  -0.019974  -0.019139   0.436452  -0.067406   0.012982
    29  H    0.013697  -0.007218   0.004818  -0.029703   0.418936  -0.066587
    30  H   -0.013460   0.022933  -0.005610  -0.013614   0.373691  -0.044940
    31  H   -0.011107  -0.005102  -0.002356  -0.010777   0.013248  -0.048013
    32  H   -0.008513   0.000543  -0.004994   0.009213  -0.010493  -0.061297
    33  H    0.002270  -0.000102   0.000783   0.000384   0.000637   0.003302
    34  H   -0.008627  -0.002106  -0.001724  -0.000259  -0.004078   0.013847
    35  H   -0.011011   0.002998  -0.006527   0.002103  -0.003469   0.010876
    36  H   -0.008295  -0.002689   0.001530  -0.000783   0.001648   0.005866
             19         20         21         22         23         24
     1  O   -0.000028   0.000051   0.001673   0.011224   0.000168   0.000004
     2  C   -0.000983   0.000737   0.058263  -0.068391  -0.023832   0.003184
     3  O   -0.000016   0.000031   0.001616   0.188057   0.003855   0.000034
     4  C    0.035481  -0.044211  -0.326512   0.164523  -0.061026   0.021922
     5  C   -0.027033   0.029129   0.740456  -0.069218   0.333844   0.046958
     6  C   -0.113100   0.211948   1.105740  -0.011056  -0.042014  -0.014348
     7  C   -0.251034   0.191543   1.233566   0.016716   0.030437  -0.020080
     8  O   -0.008470   0.018401   0.117060  -0.000121   0.000321  -0.000630
     9  C    0.004042   0.007391  -0.387625   0.009521   0.002967   0.000322
    10  O    0.000405  -0.001471  -0.012538   0.000328  -0.000961  -0.000002
    11  C    0.403338  -0.568411  -3.716372   0.000677  -0.000699   0.005056
    12  C    0.258495  -0.144631  -2.325590   0.000969   0.000884   0.005955
    13  C   -0.223100   0.097821   0.500295  -0.001114   0.017120  -0.077658
    14  C   -0.013899  -0.004376   0.466977  -0.009605   0.031984   0.317024
    15  C   -0.074121  -0.014474  -0.249917  -0.000112   0.000936  -0.002892
    16  C    0.023965  -0.024534   0.036388  -0.000002   0.000093   0.003430
    17  C   -0.177678   0.050445  -0.088973  -0.000001  -0.000031  -0.000901
    18  N    0.110789  -0.047058  -0.077786   0.000000   0.000019  -0.001071
    19  C    5.726052   0.100286  -0.338084   0.000001  -0.000003   0.000577
    20  C    0.100286   5.582289   0.244253  -0.000006   0.000061  -0.000444
    21  C   -0.338084   0.244253   8.596151  -0.000116  -0.000416   0.002719
    22  H    0.000001  -0.000006  -0.000116   0.424738   0.000443   0.000000
    23  H   -0.000003   0.000061  -0.000416   0.000443   0.551308   0.003560
    24  H    0.000577  -0.000444   0.002719   0.000000   0.003560   0.578308
    25  H   -0.002110   0.000342  -0.002289   0.000000   0.000000   0.000288
    26  H    0.001609  -0.000601   0.000329   0.000000   0.000001   0.002998
    27  H    0.001207   0.000227   0.000671   0.000000   0.000000  -0.000006
    28  H   -0.003476  -0.000669  -0.001613   0.000000   0.000000  -0.000002
    29  H   -0.008455   0.007762  -0.008187   0.000000   0.000000   0.000000
    30  H    0.008245  -0.005689  -0.000506   0.000000   0.000000   0.000000
    31  H    0.387508  -0.023506  -0.004313   0.000000   0.000000   0.000000
    32  H    0.400227  -0.018493   0.011327   0.000000   0.000000   0.000000
    33  H   -0.025692   0.358344  -0.067290   0.000000   0.000000   0.000000
    34  H   -0.074736   0.436895  -0.068054   0.000000   0.000000   0.000000
    35  H    0.001348  -0.076250   0.582301   0.000000   0.000000   0.000000
    36  H    0.019327  -0.003934   0.369433   0.000000   0.000000   0.000000
             25         26         27         28         29         30
     1  O    0.000000   0.000000   0.000000   0.000000   0.000000   0.000000
     2  C   -0.000024  -0.000035   0.000000  -0.000008  -0.000001   0.000001
     3  O    0.000000   0.000000   0.000000   0.000000   0.000000   0.000000
     4  C   -0.000269  -0.000586   0.000036  -0.000065  -0.000064   0.000116
     5  C    0.007373  -0.007615  -0.000056   0.001594  -0.000408   0.000211
     6  C   -0.039474  -0.022505   0.003753  -0.017590  -0.000713   0.003068
     7  C    0.010066  -0.006283  -0.000409   0.000448  -0.001704  -0.003617
     8  O   -0.000006   0.000004   0.000000  -0.000002  -0.000001  -0.000001
     9  C    0.000038   0.000008   0.000002   0.000113   0.000018  -0.000044
    10  O    0.000000   0.000000   0.000000   0.000000   0.000000   0.000000
    11  C   -0.014033  -0.007611   0.002353  -0.011683   0.001596  -0.001539
    12  C   -0.068592   0.045906   0.020921   0.029567   0.002525  -0.016443
    13  C   -0.191786  -0.072147   0.050943  -0.020689   0.013697  -0.013460
    14  C    0.013247  -0.058038   0.003988  -0.019974  -0.007218   0.022933
    15  C    0.634340   0.434960  -0.084327  -0.019139   0.004818  -0.005610
    16  C   -0.063301  -0.008059   0.355749   0.436452  -0.029703  -0.013614
    17  C    0.001427   0.019437  -0.032245  -0.067406   0.418936   0.373691
    18  N    0.015168   0.004547   0.003681   0.012982  -0.066587  -0.044940
    19  C   -0.002110   0.001609   0.001207  -0.003476  -0.008455   0.008245
    20  C    0.000342  -0.000601   0.000227  -0.000669   0.007762  -0.005689
    21  C   -0.002289   0.000329   0.000671  -0.001613  -0.008187  -0.000506
    22  H    0.000000   0.000000   0.000000   0.000000   0.000000   0.000000
    23  H    0.000000   0.000001   0.000000   0.000000   0.000000   0.000000
    24  H    0.000288   0.002998  -0.000006  -0.000002   0.000000   0.000000
    25  H    0.567553  -0.029652  -0.004268   0.005031   0.000028   0.001931
    26  H   -0.029652   0.565017  -0.002338  -0.004092  -0.000165   0.000028
    27  H   -0.004268  -0.002338   0.568141  -0.029075  -0.001383  -0.004238
    28  H    0.005031  -0.004092  -0.029075   0.551764  -0.006280   0.004452
    29  H    0.000028  -0.000165  -0.001383  -0.006280   0.582305  -0.044998
    30  H    0.001931   0.000028  -0.004238   0.004452  -0.044998   0.587890
    31  H    0.000003   0.000000  -0.000006   0.000063   0.004408  -0.000893
    32  H    0.000003   0.000000  -0.000005   0.000006  -0.004877   0.003998
    33  H    0.000000   0.000000   0.000000   0.000000  -0.000006  -0.000006
    34  H    0.000001   0.000000   0.000000   0.000001   0.000003   0.000070
    35  H    0.000000   0.000000   0.000000   0.000000  -0.000001   0.000003
    36  H    0.000000   0.000000   0.000000   0.000000   0.000000   0.000000
             31         32         33         34         35         36
     1  O    0.000000   0.000000   0.000000   0.000000   0.000000  -0.000001
     2  C   -0.000007  -0.000001   0.000002   0.000023   0.000676  -0.001097
     3  O    0.000000   0.000000   0.000000   0.000000   0.000000   0.000000
     4  C   -0.000289   0.000008   0.000087   0.000096   0.008511  -0.011704
     5  C   -0.000509  -0.000146  -0.000031  -0.000916   0.010226  -0.010258
     6  C    0.003942  -0.001196   0.000146   0.007371   0.043888  -0.025731
     7  C    0.005893  -0.009537  -0.008178   0.021962   0.127492  -0.093983
     8  O   -0.000072   0.000015   0.000183  -0.000423   0.002424  -0.001266
     9  C    0.000164  -0.000023  -0.000066   0.000828  -0.009832   0.007603
    10  O    0.000000   0.000000   0.000001  -0.000005   0.000016   0.000276
    11  C   -0.002334   0.017331   0.049549  -0.020911  -0.294188   0.047762
    12  C    0.001413   0.001870   0.012418   0.019383  -0.084466   0.038297
    13  C   -0.011107  -0.008513   0.002270  -0.008627  -0.011011  -0.008295
    14  C   -0.005102   0.000543  -0.000102  -0.002106   0.002998  -0.002689
    15  C   -0.002356  -0.004994   0.000783  -0.001724  -0.006527   0.001530
    16  C   -0.010777   0.009213   0.000384  -0.000259   0.002103  -0.000783
    17  C    0.013248  -0.010493   0.000637  -0.004078  -0.003469   0.001648
    18  N   -0.048013  -0.061297   0.003302   0.013847   0.010876   0.005866
    19  C    0.387508   0.400227  -0.025692  -0.074736   0.001348   0.019327
    20  C   -0.023506  -0.018493   0.358344   0.436895  -0.076250  -0.003934
    21  C   -0.004313   0.011327  -0.067290  -0.068054   0.582301   0.369433
    22  H    0.000000   0.000000   0.000000   0.000000   0.000000   0.000000
    23  H    0.000000   0.000000   0.000000   0.000000   0.000000   0.000000
    24  H    0.000000   0.000000   0.000000   0.000000   0.000000   0.000000
    25  H    0.000003   0.000003   0.000000   0.000001   0.000000   0.000000
    26  H    0.000000   0.000000   0.000000   0.000000   0.000000   0.000000
    27  H   -0.000006  -0.000005   0.000000   0.000000   0.000000   0.000000
    28  H    0.000063   0.000006   0.000000   0.000001   0.000000   0.000000
    29  H    0.004408  -0.004877  -0.000006   0.000003  -0.000001   0.000000
    30  H   -0.000893   0.003998  -0.000006   0.000070   0.000003   0.000000
    31  H    0.586061  -0.044272  -0.004033   0.004441   0.001303   0.000065
    32  H   -0.044272   0.583572  -0.001573  -0.005923   0.000025  -0.000159
    33  H   -0.004033  -0.001573   0.566951  -0.028631  -0.004661  -0.002063
    34  H    0.004441  -0.005923  -0.028631   0.553277   0.004703  -0.004302
    35  H    0.001303   0.000025  -0.004661   0.004703   0.556180  -0.026757
    36  H    0.000065  -0.000159  -0.002063  -0.004302  -0.026757   0.524861
 Mulliken atomic charges:
              1
     1  O   -0.395510
     2  C    0.715019
     3  O   -0.396983
     4  C    0.051636
     5  C    0.290834
     6  C    1.351514
     7  C   -1.533572
     8  O   -0.437010
     9  C    0.278040
    10  O   -0.428774
    11  C   -0.464812
    12  C   -0.073569
    13  C    0.457574
    14  C   -0.043282
    15  C   -0.350416
    16  C   -0.348196
    17  C   -0.143270
    18  N   -0.094717
    19  C   -0.140884
    20  C   -0.359200
    21  C   -0.393040
    22  H    0.342545
    23  H    0.150981
    24  H    0.125696
    25  H    0.158964
    26  H    0.144885
    27  H    0.146685
    28  H    0.159291
    29  H    0.144653
    30  H    0.148961
    31  H    0.149079
    32  H    0.143362
    33  H    0.147278
    34  H    0.157796
    35  H    0.162088
    36  H    0.176356
 Sum of Mulliken atomic charges =   0.00000
 Mulliken charges with hydrogens summed into heavy atoms:
              1
     1  O   -0.395510
     2  C    0.715019
     3  O   -0.054439
     4  C    0.051636
     5  C    0.441815
     6  C    1.351514
     7  C   -1.533572
     8  O   -0.437010
     9  C    0.278040
    10  O   -0.428774
    11  C   -0.464812
    12  C   -0.073569
    13  C    0.457574
    14  C    0.082414
    15  C   -0.046567
    16  C   -0.042220
    17  C    0.150344
    18  N   -0.094717
    19  C    0.151557
    20  C   -0.054127
    21  C   -0.054595
 Sum of Mulliken charges with hydrogens summed into heavy atoms =   0.00000
 Electronic spatial extent (au):  <R**2>=           7055.0784
 Charge=              0.0000 electrons
 Dipole moment (field-independent basis, Debye):
    X=            -11.9424    Y=             -3.7143    Z=             -2.2022  Tot=             12.6991
 Quadrupole moment (field-independent basis, Debye-Ang):
   XX=           -148.1380   YY=           -118.3833   ZZ=           -121.8560
   XY=            -12.0569   XZ=            -11.6455   YZ=              1.3388
 Traceless Quadrupole moment (field-independent basis, Debye-Ang):
   XX=            -18.6789   YY=             11.0758   ZZ=              7.6031
   XY=            -12.0569   XZ=            -11.6455   YZ=              1.3388
 Octapole moment (field-independent basis, Debye-Ang**2):
  XXX=           -318.0719  YYY=            -18.6113  ZZZ=             -5.6576  XYY=            -36.7357
  XXY=            -24.3448  XXZ=            -49.4462  XZZ=             11.1951  YZZ=              1.9868
  YYZ=             -3.1957  XYZ=              4.8747
 Hexadecapole moment (field-independent basis, Debye-Ang**3):
 XXXX=          -8286.0154 YYYY=          -1925.3082 ZZZZ=           -260.7333 XXXY=              8.5253
 XXXZ=           -253.2058 YYYX=            -86.4604 YYYZ=              8.5075 ZZZX=            -32.0138
 ZZZY=             13.8060 XXYY=          -1549.7054 XXZZ=          -1227.9639 YYZZ=           -365.6578
 XXYZ=             11.2885 YYXZ=            -11.9988 ZZXY=            -17.8216
 N-N= 1.648340280963D+03 E-N=-5.563864050010D+03  KE= 9.654343918026D+02
 Leave Link  601 at Mon Jan 16 08:08:49 2012, MaxMem=  536870912 cpu:       2.6
 (Enter /usr/local/gaussian/g09/l9999.exe)
 1\1\GINC-CL005\SP\RTD-B3LYP-FC\6-31+G(d,p)\C16H15N1O4\JCOLE\16-Jan-201
 2\0\\#p b3lyp/6-31+g(d,p) td(root=1,nstates=3) geom=check guess=read\\
 c343\\0,1\O,0,-4.919044886,1.2338387726,-0.7232325334\C,0,-3.878393506
 8,1.3792402965,-0.1346077697\O,0,-3.3231126632,0.3270694926,0.54502838
 78\C,0,-3.0682523556,2.6383981273,-0.1327241917\C,0,-1.7324201067,2.62
 56066974,-0.4398640482\C,0,-0.9774002623,3.822354386,-0.5758965679\C,0
 ,-1.6466106064,5.0495549271,-0.3822176931\O,0,-2.9732670848,5.06083490
 92,-0.0519049601\C,0,-3.7566211729,3.9083994914,0.1069946707\O,0,-4.90
 12640833,4.0678009173,0.4560940972\C,0,-1.0178746327,6.283749677,-0.52
 04280507\C,0,0.3612881406,6.3009897104,-0.8621024832\C,0,1.0710758032,
 5.0665389357,-1.0418750397\C,0,0.3920698477,3.8726020266,-0.9133888734
 \C,0,2.5425233421,5.1063688625,-1.3840005583\C,0,2.842825117,6.3330113
 652,-2.2490953062\C,0,2.3940276263,7.593964649,-1.5179657153\N,0,1.019
 7397274,7.4992864003,-1.0187993276\C,0,0.3678077322,8.7874222295,-0.77
 19671276\C,0,-0.8131124514,8.6633842065,0.1840571954\C,0,-1.772375352,
 7.5741451174,-0.3011137135\H,0,-2.5942977484,0.6371949596,1.1018783206
 \H,0,-1.2301601371,1.6772448117,-0.6242817488\H,0,0.9262075213,2.93835
 97907,-1.0725427626\H,0,3.1449777562,5.1599046756,-0.4648817599\H,0,2.
 8330471667,4.183001774,-1.8958410097\H,0,3.9119252603,6.4109887655,-2.
 4725156261\H,0,2.3115522383,6.2494632701,-3.2049896472\H,0,2.444447656
 5,8.4571608541,-2.1937132846\H,0,3.0751586663,7.806403962,-0.678113066
 4\H,0,0.0375636853,9.2229157367,-1.7293244941\H,0,1.1221942323,9.46663
 9305,-0.3559332586\H,0,-1.3218900689,9.6303624204,0.2528814234\H,0,-0.
 44748033,8.4140897219,1.1877574275\H,0,-2.2547230494,7.8936471216,-1.2
 362884127\H,0,-2.5802310219,7.4140616337,0.4172175076\\Version=AM64L-G
 09RevA.02\State=1-A\HF=-974.4697029\RMSD=9.638e-10\PG=C01 [X(C16H15N1O
 4)]\\@


     "IF I COULD JUST GET IT ON PAPER"
 LIFE AND INK, THEY RUN OUT AT THE SAME TIME,
 OR SO SAID MY OLD FRIEND THE SQUID.
     -- JIMMY BUFFETT, 1981
 Job cpu time:  0 days  1 hours 18 minutes  0.7 seconds.
 File lengths (MBytes):  RWF=    311 Int=      0 D2E=      0 Chk=     36 Scr=      1
 Normal termination of Gaussian 09 at Mon Jan 16 08:08:50 2012.
